 Gaussian 09, Revision D.01,
 Gaussian 09:  ES64L-G09RevD.01 24-Apr-2013

 --------------------
 #p B2PLYPD3/Def2QZVP
 --------------------

 ------------
 cyanomethane
 ------------
 Symbolic Z-matrix:
 Charge =  0 Multiplicity = 1

                         Standard orientation:
 ---------------------------------------------------------------------
 Center     Atomic      Atomic             Coordinates (Angstroms)
 Number     Number       Type             X           Y           Z
 ---------------------------------------------------------------------
      1          6           0        1.146544    0.032467    0.017537
      2          6           0       -0.255414   -0.008780   -0.062830
      3          7           0       -1.433227   -0.001431    0.021268
      4          1           0        1.559397    1.030463   -0.135361
      5          1           0        1.681987   -0.752698   -0.696622
      6          1           0        1.444425   -0.409873    0.954868
 ---------------------------------------------------------------------

 SCF Done:  E(RB2PLYPD3) =  -132.521103128     A.U. after   12 cycles
 E2(B2PLYPD3) =    -0.1835168416D+00 E(B2PLYPD3) =    -0.13270461996921D+03

 The electronic state is 1-A.
 Alpha  occ. eigenvalues --  -14.84944 -10.67530 -10.66874  -1.03311  -0.89712
 Alpha  occ. eigenvalues --   -0.60837  -0.55446  -0.51422  -0.45029  -0.38457
 Alpha  occ. eigenvalues --   -0.37733
 Alpha virt. eigenvalues --    0.03527   0.05999   0.07092   0.09999   0.11120
 Alpha virt. eigenvalues --    0.12015   0.15471   0.15846   0.17177   0.20100
 Alpha virt. eigenvalues --    0.20307   0.26444   0.31443   0.34206   0.35025

 Mulliken charges:
               1
     1  C   -0.081044
     2  C    0.008960
     3  N   -0.217669
     4  H    0.106701
     5  H    0.083039
     6  H    0.100013
 Sum of Mulliken charges =   0.00000

 Dipole moment (field-independent basis, Debye):
    X=              4.1435    Y=             -0.0370    Z=              0.0385  Tot=              4.1438
 Quadrupole moment (field-independent basis, Debye-Ang):
   XX=            -20.9501   YY=            -17.5713   ZZ=            -18.1880
   XY=             -0.1541   XZ=              0.0934   YZ=             -0.1324

 Normal termination of Gaussian 09 at Wed Aug 26 18:44:42 2020.
