 Gaussian 09, Revision D.01,
 Gaussian 09:  ES64L-G09RevD.01 24-Apr-2013

 --------------------
 #p B2PLYPD3/Def2QZVP
 --------------------

 ------------
 cyanomethane
 ------------
 Symbolic Z-matrix:
 Charge =  0 Multiplicity = 1

                         Standard orientation:
 ---------------------------------------------------------------------
 Center     Atomic      Atomic             Coordinates (Angstroms)
 Number     Number       Type             X           Y           Z
 ---------------------------------------------------------------------
      1          6           0       -1.184823    0.001837   -0.000234
      2          6           0        0.281775    0.005739   -0.036754
      3          7           0        1.452670    0.001108    0.007536
      4          1           0       -1.642337   -0.830280   -0.562446
      5          1           0       -1.700785    0.947034   -0.305664
      6          1           0       -1.407281   -0.169966    1.037283
 ---------------------------------------------------------------------

 SCF Done:  E(RB2PLYPD3) =  -132.529767863     A.U. after   13 cycles
 E2(B2PLYPD3) =    -0.1822869306D+00 E(B2PLYPD3) =    -0.13271205479403D+03

 The electronic state is 1-A.
 Alpha  occ. eigenvalues --  -14.84814 -10.67589 -10.67033  -1.03507  -0.88901
 Alpha  occ. eigenvalues --   -0.60185  -0.53582  -0.53037  -0.44956  -0.38817
 Alpha  occ. eigenvalues --   -0.38626
 Alpha virt. eigenvalues --    0.03651   0.06972   0.07707   0.10236   0.11225
 Alpha virt. eigenvalues --    0.11454   0.15114   0.15809   0.17384   0.20159
 Alpha virt. eigenvalues --    0.20226   0.25184   0.31951   0.34428   0.34791

 Mulliken charges:
               1
     1  C   -0.081556
     2  C    0.006313
     3  N   -0.213256
     4  H    0.094026
     5  H    0.094809
     6  H    0.099664
 Sum of Mulliken charges =   0.00000

 Dipole moment (field-independent basis, Debye):
    X=             -4.1748    Y=             -0.0205    Z=              0.0386  Tot=              4.1750
 Quadrupole moment (field-independent basis, Debye-Ang):
   XX=            -20.8046   YY=            -17.8550   ZZ=            -17.9721
   XY=             -0.0350   XZ=              0.0560   YZ=             -0.0041

 Normal termination of Gaussian 09 at Wed Aug 26 19:03:48 2020.
