 Gaussian 09, Revision D.01,
 Gaussian 09:  ES64L-G09RevD.01 24-Apr-2013

 --------------------
 #p B2PLYPD3/Def2QZVP
 --------------------

 ------------
 cyanomethane
 ------------
 Symbolic Z-matrix:
 Charge =  0 Multiplicity = 1

                         Standard orientation:
 ---------------------------------------------------------------------
 Center     Atomic      Atomic             Coordinates (Angstroms)
 Number     Number       Type             X           Y           Z
 ---------------------------------------------------------------------
      1          6           0        1.181189   -0.006214   -0.002886
      2          6           0       -0.273826    0.016768    0.003953
      3          7           0       -1.434025   -0.010471   -0.004298
      4          1           0        1.500920    1.007389   -0.045979
      5          1           0        1.578495   -0.545405   -0.824323
      6          1           0        1.514580   -0.452012    0.893982
 ---------------------------------------------------------------------

 SCF Done:  E(RB2PLYPD3) =  -132.533576390     A.U. after   12 cycles
 E2(B2PLYPD3) =    -0.1806190725D+00 E(B2PLYPD3) =    -0.13271419546221D+03

 The electronic state is 1-A.
 Alpha  occ. eigenvalues --  -14.84293 -10.66353 -10.66213  -1.03857  -0.90022
 Alpha  occ. eigenvalues --   -0.59964  -0.54882  -0.54598  -0.44753  -0.38966
 Alpha  occ. eigenvalues --   -0.38910
 Alpha virt. eigenvalues --    0.03894   0.08014   0.08378   0.10162   0.11312
 Alpha virt. eigenvalues --    0.11349   0.15455   0.15844   0.16637   0.20128
 Alpha virt. eigenvalues --    0.20156   0.25388   0.32895   0.34908   0.35190

 Mulliken charges:
               1
     1  C   -0.076351
     2  C   -0.001618
     3  N   -0.210488
     4  H    0.096346
     5  H    0.095667
     6  H    0.096445
 Sum of Mulliken charges =   0.00000

 Dipole moment (field-independent basis, Debye):
    X=              4.1430    Y=              0.0152    Z=              0.0124  Tot=              4.1431
 Quadrupole moment (field-independent basis, Debye-Ang):
   XX=            -20.9830   YY=            -17.6915   ZZ=            -17.7373
   XY=             -0.0961   XZ=             -0.0518   YZ=             -0.0037

 Normal termination of Gaussian 09 at Thu Aug 27 00:13:12 2020.
