 Gaussian 09, Revision D.01,
 Gaussian 09:  ES64L-G09RevD.01 24-Apr-2013

 --------------------
 #p B2PLYPD3/Def2QZVP
 --------------------

 ------------
 cyanomethane
 ------------
 Symbolic Z-matrix:
 Charge =  0 Multiplicity = 1

                         Standard orientation:
 ---------------------------------------------------------------------
 Center     Atomic      Atomic             Coordinates (Angstroms)
 Number     Number       Type             X           Y           Z
 ---------------------------------------------------------------------
      1          6           0        1.171956   -0.008214   -0.011362
      2          6           0       -0.283311    0.031476    0.023411
      3          7           0       -1.432312   -0.017101   -0.014794
      4          1           0        1.564131    0.963487   -0.328926
      5          1           0        1.612549   -0.788651   -0.640274
      6          1           0        1.517631   -0.194700    1.000456
 ---------------------------------------------------------------------

 SCF Done:  E(RB2PLYPD3) =  -132.534377600     A.U. after   12 cycles
 E2(B2PLYPD3) =    -0.1802751039D+00 E(B2PLYPD3) =    -0.13271465270384D+03

 The electronic state is 1-A.
 Alpha  occ. eigenvalues --  -14.84163 -10.67131 -10.66211  -1.04332  -0.89120
 Alpha  occ. eigenvalues --   -0.60078  -0.53819  -0.53383  -0.44860  -0.39221
 Alpha  occ. eigenvalues --   -0.39118
 Alpha virt. eigenvalues --    0.03704   0.07540   0.08183   0.10109   0.11480
 Alpha virt. eigenvalues --    0.11604   0.15505   0.15861   0.17212   0.20051
 Alpha virt. eigenvalues --    0.20124   0.25534   0.32854   0.34398   0.34817

 Mulliken charges:
               1
     1  C   -0.080296
     2  C    0.000569
     3  N   -0.203521
     4  H    0.094297
     5  H    0.095662
     6  H    0.093290
 Sum of Mulliken charges =   0.00000

 Dipole moment (field-independent basis, Debye):
    X=              4.1175    Y=              0.0211    Z=              0.0411  Tot=              4.1178
 Quadrupole moment (field-independent basis, Debye-Ang):
   XX=            -20.8837   YY=            -17.7291   ZZ=            -17.8290
   XY=             -0.1288   XZ=             -0.0993   YZ=             -0.0073

 Normal termination of Gaussian 09 at Wed Aug 26 14:15:47 2020.
