 Gaussian 09, Revision D.01,
 Gaussian 09:  ES64L-G09RevD.01 24-Apr-2013

 --------------------
 #p B2PLYPD3/Def2QZVP
 --------------------

 ------------
 cyanomethane
 ------------
 Symbolic Z-matrix:
 Charge =  0 Multiplicity = 1

                         Standard orientation:
 ---------------------------------------------------------------------
 Center     Atomic      Atomic             Coordinates (Angstroms)
 Number     Number       Type             X           Y           Z
 ---------------------------------------------------------------------
      1          6           0        1.209397    0.032897   -0.008492
      2          6           0       -0.305569   -0.074645   -0.026096
      3          7           0       -1.428077    0.037257    0.016330
      4          1           0        1.545279   -0.223576    1.018888
      5          1           0        1.525513    0.961720   -0.280259
      6          1           0        1.502778   -0.748453   -0.645410
 ---------------------------------------------------------------------

 SCF Done:  E(RB2PLYPD3) =  -132.526780960     A.U. after   12 cycles
 E2(B2PLYPD3) =    -0.1782187274D+00 E(B2PLYPD3) =    -0.13270499968769D+03

 The electronic state is 1-A.
 Alpha  occ. eigenvalues --  -14.83413 -10.66753 -10.65489  -1.04988  -0.88962
 Alpha  occ. eigenvalues --   -0.58543  -0.55482  -0.53309  -0.44514  -0.40046
 Alpha  occ. eigenvalues --   -0.39743
 Alpha virt. eigenvalues --    0.03710   0.08606   0.09384   0.10109   0.11197
 Alpha virt. eigenvalues --    0.11551   0.15172   0.15376   0.17173   0.19826
 Alpha virt. eigenvalues --    0.20041   0.24775   0.32679   0.34232   0.35688

 Mulliken charges:
               1
     1  C   -0.092703
     2  C   -0.011998
     3  N   -0.191762
     4  H    0.092863
     5  H    0.105231
     6  H    0.098369
 Sum of Mulliken charges =   0.00000

 Dipole moment (field-independent basis, Debye):
    X=              4.0852    Y=             -0.0734    Z=             -0.0259  Tot=              4.0859
 Quadrupole moment (field-independent basis, Debye-Ang):
   XX=            -21.0954   YY=            -17.5152   ZZ=            -17.7122
   XY=              0.1959   XZ=              0.1307   YZ=             -0.0211

 Normal termination of Gaussian 09 at Wed Aug 26 19:14:50 2020.
