 Gaussian 09, Revision D.01,
 Gaussian 09:  ES64L-G09RevD.01 24-Apr-2013

 --------------------
 #p B2PLYPD3/Def2QZVP
 --------------------

 ------------
 cyanomethane
 ------------
 Symbolic Z-matrix:
 Charge =  0 Multiplicity = 1

                         Standard orientation:
 ---------------------------------------------------------------------
 Center     Atomic      Atomic             Coordinates (Angstroms)
 Number     Number       Type             X           Y           Z
 ---------------------------------------------------------------------
      1          6           0       -1.168330   -0.003542   -0.005326
      2          6           0        0.273184    0.014788   -0.020473
      3          7           0        1.431703   -0.006775    0.002542
      4          1           0       -1.612061   -0.871841   -0.527226
      5          1           0       -1.609555    0.938570   -0.390296
      6          1           0       -1.429436   -0.086781    1.054524
 ---------------------------------------------------------------------

 SCF Done:  E(RB2PLYPD3) =  -132.533177894     A.U. after   12 cycles
 E2(B2PLYPD3) =    -0.1810888936D+00 E(B2PLYPD3) =    -0.13271426678726D+03

 The electronic state is 1-A.
 Alpha  occ. eigenvalues --  -14.84292 -10.67402 -10.66356  -1.03986  -0.89255
 Alpha  occ. eigenvalues --   -0.59934  -0.53719  -0.53576  -0.44823  -0.38942
 Alpha  occ. eigenvalues --   -0.38710
 Alpha virt. eigenvalues --    0.03691   0.07355   0.07784   0.10162   0.11425
 Alpha virt. eigenvalues --    0.11697   0.15406   0.15748   0.17031   0.20110
 Alpha virt. eigenvalues --    0.20167   0.25641   0.32582   0.34057   0.34798

 Mulliken charges:
               1
     1  C   -0.088373
     2  C    0.001796
     3  N   -0.208597
     4  H    0.098514
     5  H    0.097514
     6  H    0.099145
 Sum of Mulliken charges =   0.00000

 Dipole moment (field-independent basis, Debye):
    X=             -4.1293    Y=              0.0047    Z=              0.0338  Tot=              4.1295
 Quadrupole moment (field-independent basis, Debye-Ang):
   XX=            -21.0134   YY=            -17.7099   ZZ=            -17.8513
   XY=              0.0371   XZ=              0.0520   YZ=              0.0044

 Normal termination of Gaussian 09 at Wed Aug 26 15:12:20 2020.
