 Gaussian 09, Revision D.01,
 Gaussian 09:  ES64L-G09RevD.01 24-Apr-2013

 --------------------
 #p B2PLYPD3/Def2QZVP
 --------------------

 ------------
 cyanomethane
 ------------
 Symbolic Z-matrix:
 Charge =  0 Multiplicity = 1

                         Standard orientation:
 ---------------------------------------------------------------------
 Center     Atomic      Atomic             Coordinates (Angstroms)
 Number     Number       Type             X           Y           Z
 ---------------------------------------------------------------------
      1          6           0        1.178962    0.016153    0.004301
      2          6           0       -0.288339   -0.044197   -0.007898
      3          7           0       -1.433122    0.020612    0.003636
      4          1           0        1.548707    1.013605   -0.086935
      5          1           0        1.571707   -0.569993   -0.797670
      6          1           0        1.567698   -0.419632    0.880734
 ---------------------------------------------------------------------

 SCF Done:  E(RB2PLYPD3) =  -132.534403057     A.U. after   12 cycles
 E2(B2PLYPD3) =    -0.1795422878D+00 E(B2PLYPD3) =    -0.13271394534498D+03

 The electronic state is 1-A.
 Alpha  occ. eigenvalues --  -14.84055 -10.66353 -10.66114  -1.04464  -0.89545
 Alpha  occ. eigenvalues --   -0.60183  -0.54542  -0.53805  -0.44827  -0.39469
 Alpha  occ. eigenvalues --   -0.39337
 Alpha virt. eigenvalues --    0.03829   0.08145   0.08513   0.10186   0.11417
 Alpha virt. eigenvalues --    0.11489   0.15462   0.16121   0.17072   0.20023
 Alpha virt. eigenvalues --    0.20059   0.25347   0.32965   0.34930   0.35307

 Mulliken charges:
               1
     1  C   -0.068542
     2  C   -0.001362
     3  N   -0.202094
     4  H    0.094642
     5  H    0.087628
     6  H    0.089728
 Sum of Mulliken charges =   0.00000

 Dipole moment (field-independent basis, Debye):
    X=              4.1292    Y=             -0.0495    Z=             -0.0035  Tot=              4.1295
 Quadrupole moment (field-independent basis, Debye-Ang):
   XX=            -20.7710   YY=            -17.6552   ZZ=            -17.8374
   XY=              0.0517   XZ=              0.0238   YZ=             -0.0187

 Normal termination of Gaussian 09 at Wed Aug 26 14:10:13 2020.
