 Gaussian 09, Revision D.01,
 Gaussian 09:  ES64L-G09RevD.01 24-Apr-2013

 --------------------
 #p B2PLYPD3/Def2QZVP
 --------------------

 ------------
 cyanomethane
 ------------
 Symbolic Z-matrix:
 Charge =  0 Multiplicity = 1

                         Standard orientation:
 ---------------------------------------------------------------------
 Center     Atomic      Atomic             Coordinates (Angstroms)
 Number     Number       Type             X           Y           Z
 ---------------------------------------------------------------------
      1          6           0       -1.186112   -0.000022    0.004758
      2          6           0        0.279150   -0.005744   -0.001641
      3          7           0        1.438462    0.000884   -0.001726
      4          1           0       -1.583178   -0.704576   -0.731978
      5          1           0       -1.521503    1.004664   -0.249716
      6          1           0       -1.522778   -0.271673    0.975067
 ---------------------------------------------------------------------

 SCF Done:  E(RB2PLYPD3) =  -132.534911399     A.U. after   12 cycles
 E2(B2PLYPD3) =    -0.1807650313D+00 E(B2PLYPD3) =    -0.13271567643008D+03

 The electronic state is 1-A.
 Alpha  occ. eigenvalues --  -14.84292 -10.67016 -10.66385  -1.03880  -0.89317
 Alpha  occ. eigenvalues --   -0.59478  -0.54585  -0.53798  -0.44748  -0.39011
 Alpha  occ. eigenvalues --   -0.38936
 Alpha virt. eigenvalues --    0.03783   0.07841   0.08175   0.10199   0.11290
 Alpha virt. eigenvalues --    0.11386   0.15311   0.16090   0.16354   0.20106
 Alpha virt. eigenvalues --    0.20124   0.25173   0.32600   0.34523   0.34934

 Mulliken charges:
               1
     1  C   -0.085099
     2  C   -0.002014
     3  N   -0.208859
     4  H    0.096786
     5  H    0.098758
     6  H    0.100426
 Sum of Mulliken charges =   0.00000

 Dipole moment (field-independent basis, Debye):
    X=             -4.1395    Y=              0.0004    Z=              0.0068  Tot=              4.1395
 Quadrupole moment (field-independent basis, Debye-Ang):
   XX=            -21.0520   YY=            -17.7425   ZZ=            -17.7464
   XY=              0.0299   XZ=              0.0373   YZ=             -0.0200

 Normal termination of Gaussian 09 at Wed Aug 26 23:56:10 2020.
