 Gaussian 09, Revision D.01,
 Gaussian 09:  ES64L-G09RevD.01 24-Apr-2013

 --------------------
 #p B2PLYPD3/Def2QZVP
 --------------------

 ------------
 cyanomethane
 ------------
 Symbolic Z-matrix:
 Charge =  0 Multiplicity = 1

                         Standard orientation:
 ---------------------------------------------------------------------
 Center     Atomic      Atomic             Coordinates (Angstroms)
 Number     Number       Type             X           Y           Z
 ---------------------------------------------------------------------
      1          6           0       -1.196399    0.012595   -0.020415
      2          6           0        0.305225   -0.061187   -0.015600
      3          7           0        1.434678    0.030271    0.009894
      4          1           0       -1.550689    1.074425    0.021775
      5          1           0       -1.564904   -0.478467    0.922126
      6          1           0       -1.580109   -0.516299   -0.797076
 ---------------------------------------------------------------------

 SCF Done:  E(RB2PLYPD3) =  -132.528712076     A.U. after   12 cycles
 E2(B2PLYPD3) =    -0.1788127380D+00 E(B2PLYPD3) =    -0.13270752481445D+03

 The electronic state is 1-A.
 Alpha  occ. eigenvalues --  -14.83679 -10.67403 -10.65815  -1.04914  -0.88482
 Alpha  occ. eigenvalues --   -0.59055  -0.54894  -0.52247  -0.44695  -0.39980
 Alpha  occ. eigenvalues --   -0.39566
 Alpha virt. eigenvalues --    0.03550   0.07893   0.09141   0.10251   0.11172
 Alpha virt. eigenvalues --    0.11741   0.15131   0.15966   0.17114   0.19865
 Alpha virt. eigenvalues --    0.20026   0.24828   0.32517   0.33688   0.35244

 Mulliken charges:
               1
     1  C   -0.088048
     2  C   -0.006023
     3  N   -0.193479
     4  H    0.099120
     5  H    0.087795
     6  H    0.100635
 Sum of Mulliken charges =   0.00000

 Dipole moment (field-independent basis, Debye):
    X=             -4.1059    Y=             -0.0657    Z=             -0.0043  Tot=              4.1064
 Quadrupole moment (field-independent basis, Debye-Ang):
   XX=            -20.9276   YY=            -17.6189   ZZ=            -17.8330
   XY=             -0.1131   XZ=             -0.0800   YZ=              0.0902

 Normal termination of Gaussian 09 at Wed Aug 26 19:20:45 2020.
