 Gaussian 09, Revision D.01,
 Gaussian 09:  ES64L-G09RevD.01 24-Apr-2013

 --------------------
 #p B2PLYPD3/Def2QZVP
 --------------------

 ------------
 cyanomethane
 ------------
 Symbolic Z-matrix:
 Charge =  0 Multiplicity = 1

                         Standard orientation:
 ---------------------------------------------------------------------
 Center     Atomic      Atomic             Coordinates (Angstroms)
 Number     Number       Type             X           Y           Z
 ---------------------------------------------------------------------
      1          6           0       -1.185780    0.002596    0.005527
      2          6           0        0.288950    0.017501   -0.013314
      3          7           0        1.431524   -0.003386    0.010018
      4          1           0       -1.585363   -0.162045    1.006904
      5          1           0       -1.455355   -0.909663   -0.620370
      6          1           0       -1.598971    0.974828   -0.409933
 ---------------------------------------------------------------------

 SCF Done:  E(RB2PLYPD3) =  -132.531306487     A.U. after   12 cycles
 E2(B2PLYPD3) =    -0.1799695859D+00 E(B2PLYPD3) =    -0.13271127607314D+03

 The electronic state is 1-A.
 Alpha  occ. eigenvalues --  -14.83827 -10.68255 -10.65957  -1.04509  -0.88239
 Alpha  occ. eigenvalues --   -0.58879  -0.53503  -0.52799  -0.44663  -0.39380
 Alpha  occ. eigenvalues --   -0.39175
 Alpha virt. eigenvalues --    0.03559   0.07748   0.07935   0.10216   0.11501
 Alpha virt. eigenvalues --    0.11741   0.15121   0.15849   0.16710   0.19981
 Alpha virt. eigenvalues --    0.20087   0.25033   0.32234   0.33558   0.34460

 Mulliken charges:
               1
     1  C   -0.105033
     2  C   -0.002232
     3  N   -0.199573
     4  H    0.101751
     5  H    0.102168
     6  H    0.102920
 Sum of Mulliken charges =   0.00000

 Dipole moment (field-independent basis, Debye):
    X=             -4.0950    Y=             -0.0136    Z=              0.0100  Tot=              4.0950
 Quadrupole moment (field-independent basis, Debye-Ang):
   XX=            -21.2145   YY=            -17.5788   ZZ=            -17.8746
   XY=             -0.0450   XZ=             -0.1822   YZ=             -0.0166

 Normal termination of Gaussian 09 at Wed Aug 26 13:48:48 2020.
