 Gaussian 09, Revision D.01,
 Gaussian 09:  ES64L-G09RevD.01 24-Apr-2013

 --------------------
 #p B2PLYPD3/Def2QZVP
 --------------------

 ------------
 cyanomethane
 ------------
 Symbolic Z-matrix:
 Charge =  0 Multiplicity = 1

                         Standard orientation:
 ---------------------------------------------------------------------
 Center     Atomic      Atomic             Coordinates (Angstroms)
 Number     Number       Type             X           Y           Z
 ---------------------------------------------------------------------
      1          6           0        1.193646    0.013317    0.019474
      2          6           0       -0.278067   -0.001576   -0.036027
      3          7           0       -1.442454    0.001886    0.016650
      4          1           0        1.518349   -0.588459   -0.808146
      5          1           0        1.517221   -0.450000    0.877595
      6          1           0        1.568136    0.954814   -0.086677
 ---------------------------------------------------------------------

 SCF Done:  E(RB2PLYPD3) =  -132.528324895     A.U. after   12 cycles
 E2(B2PLYPD3) =    -0.1809012133D+00 E(B2PLYPD3) =    -0.13270922610785D+03

 The electronic state is 1-A.
 Alpha  occ. eigenvalues --  -14.84484 -10.66589 -10.65805  -1.03641  -0.90238
 Alpha  occ. eigenvalues --   -0.60037  -0.56075  -0.54139  -0.44772  -0.39090
 Alpha  occ. eigenvalues --   -0.38782
 Alpha virt. eigenvalues --    0.03929   0.08254   0.08398   0.10160   0.11020
 Alpha virt. eigenvalues --    0.11335   0.15381   0.15670   0.16870   0.20128
 Alpha virt. eigenvalues --    0.20169   0.25141   0.32694   0.34605   0.36024

 Mulliken charges:
               1
     1  C   -0.069272
     2  C   -0.000062
     3  N   -0.212749
     4  H    0.089076
     5  H    0.096433
     6  H    0.096575
 Sum of Mulliken charges =   0.00000

 Dipole moment (field-independent basis, Debye):
    X=              4.1617    Y=             -0.0202    Z=             -0.0308  Tot=              4.1618
 Quadrupole moment (field-independent basis, Debye-Ang):
   XX=            -20.9032   YY=            -17.6846   ZZ=            -17.7797
   XY=              0.0092   XZ=              0.0599   YZ=             -0.0529

 Normal termination of Gaussian 09 at Wed Aug 26 15:34:07 2020.
