 Gaussian 09, Revision D.01,
 Gaussian 09:  ES64L-G09RevD.01 24-Apr-2013

 --------------------
 #p B2PLYPD3/Def2QZVP
 --------------------

 ------------
 cyanomethane
 ------------
 Symbolic Z-matrix:
 Charge =  0 Multiplicity = 1

                         Standard orientation:
 ---------------------------------------------------------------------
 Center     Atomic      Atomic             Coordinates (Angstroms)
 Number     Number       Type             X           Y           Z
 ---------------------------------------------------------------------
      1          6           0        1.194012   -0.011057   -0.008395
      2          6           0       -0.284464   -0.008291    0.019318
      3          7           0       -1.435593    0.005810   -0.012103
      4          1           0        1.550611    0.948908   -0.369194
      5          1           0        1.550314   -0.768529   -0.590728
      6          1           0        1.490938   -0.104958    0.979103
 ---------------------------------------------------------------------

 SCF Done:  E(RB2PLYPD3) =  -132.530707832     A.U. after   12 cycles
 E2(B2PLYPD3) =    -0.1797260962D+00 E(B2PLYPD3) =    -0.13271043392820D+03

 The electronic state is 1-A.
 Alpha  occ. eigenvalues --  -14.84055 -10.66154 -10.66027  -1.04151  -0.89970
 Alpha  occ. eigenvalues --   -0.59544  -0.55824  -0.54105  -0.44677  -0.39381
 Alpha  occ. eigenvalues --   -0.39157
 Alpha virt. eigenvalues --    0.03903   0.08350   0.08934   0.10225   0.11148
 Alpha virt. eigenvalues --    0.11405   0.15333   0.15800   0.16734   0.20052
 Alpha virt. eigenvalues --    0.20122   0.24949   0.32781   0.34715   0.35799

 Mulliken charges:
               1
     1  C   -0.076349
     2  C   -0.004788
     3  N   -0.205919
     4  H    0.092556
     5  H    0.098600
     6  H    0.095899
 Sum of Mulliken charges =   0.00000

 Dipole moment (field-independent basis, Debye):
    X=              4.1409    Y=             -0.0048    Z=              0.0343  Tot=              4.1411
 Quadrupole moment (field-independent basis, Debye-Ang):
   XX=            -20.9595   YY=            -17.6652   ZZ=            -17.6986
   XY=              0.0491   XZ=             -0.0768   YZ=              0.0533

 Normal termination of Gaussian 09 at Wed Aug 26 13:05:40 2020.
