 Gaussian 09, Revision D.01,
 Gaussian 09:  ES64L-G09RevD.01 24-Apr-2013

 --------------------
 #p B2PLYPD3/Def2QZVP
 --------------------

 ------------
 cyanomethane
 ------------
 Symbolic Z-matrix:
 Charge =  0 Multiplicity = 1

                         Standard orientation:
 ---------------------------------------------------------------------
 Center     Atomic      Atomic             Coordinates (Angstroms)
 Number     Number       Type             X           Y           Z
 ---------------------------------------------------------------------
      1          6           0       -1.187283    0.009112   -0.002319
      2          6           0        0.277689    0.005216    0.008641
      3          7           0        1.437571   -0.005688   -0.002423
      4          1           0       -1.507456    1.027080   -0.025943
      5          1           0       -1.570320   -0.520276    0.891878
      6          1           0       -1.527657   -0.552962   -0.886910
 ---------------------------------------------------------------------

 SCF Done:  E(RB2PLYPD3) =  -132.534117685     A.U. after   11 cycles
 E2(B2PLYPD3) =    -0.1809627510D+00 E(B2PLYPD3) =    -0.13271508043583D+03

 The electronic state is 1-A.
 Alpha  occ. eigenvalues --  -14.84272 -10.67349 -10.66365  -1.03830  -0.89134
 Alpha  occ. eigenvalues --   -0.59118  -0.54875  -0.53320  -0.44709  -0.38993
 Alpha  occ. eigenvalues --   -0.38814
 Alpha virt. eigenvalues --    0.03719   0.07677   0.08161   0.10188   0.11210
 Alpha virt. eigenvalues --    0.11481   0.15247   0.16060   0.16169   0.20082
 Alpha virt. eigenvalues --    0.20156   0.25165   0.32509   0.34102   0.34934

 Mulliken charges:
               1
     1  C   -0.092230
     2  C   -0.002181
     3  N   -0.209261
     4  H    0.105149
     5  H    0.098447
     6  H    0.100076
 Sum of Mulliken charges =   0.00000

 Dipole moment (field-independent basis, Debye):
    X=             -4.1312    Y=             -0.0005    Z=              0.0001  Tot=              4.1312
 Quadrupole moment (field-independent basis, Debye-Ang):
   XX=            -21.1649   YY=            -17.6534   ZZ=            -17.8148
   XY=              0.0907   XZ=             -0.0132   YZ=              0.0037

 Normal termination of Gaussian 09 at Thu Aug 27 00:01:35 2020.
