 Gaussian 09, Revision D.01,
 Gaussian 09:  ES64L-G09RevD.01 24-Apr-2013

 --------------------
 #p B2PLYPD3/Def2QZVP
 --------------------

 ------------
 cyanomethane
 ------------
 Symbolic Z-matrix:
 Charge =  0 Multiplicity = 1

                         Standard orientation:
 ---------------------------------------------------------------------
 Center     Atomic      Atomic             Coordinates (Angstroms)
 Number     Number       Type             X           Y           Z
 ---------------------------------------------------------------------
      1          6           0        1.192762    0.052445   -0.005251
      2          6           0       -0.301409   -0.036052    0.035207
      3          7           0       -1.440683    0.014536   -0.017607
      4          1           0        1.591878    1.024963   -0.069945
      5          1           0        1.564815   -0.662264   -0.908248
      6          1           0        1.579968   -0.562812    0.921709
 ---------------------------------------------------------------------

 SCF Done:  E(RB2PLYPD3) =  -132.518475720     A.U. after   12 cycles
 E2(B2PLYPD3) =    -0.1805369563D+00 E(B2PLYPD3) =    -0.13269901267625D+03

 The electronic state is 1-A.
 Alpha  occ. eigenvalues --  -14.83959 -10.69213 -10.66168  -1.04629  -0.87326
 Alpha  occ. eigenvalues --   -0.59096  -0.54052  -0.50310  -0.44771  -0.39739
 Alpha  occ. eigenvalues --   -0.38925
 Alpha virt. eigenvalues --    0.03252   0.07070   0.07799   0.10013   0.11288
 Alpha virt. eigenvalues --    0.11965   0.15029   0.15433   0.17626   0.19895
 Alpha virt. eigenvalues --    0.20097   0.24940   0.31472   0.31856   0.34835

 Mulliken charges:
               1
     1  C   -0.110082
     2  C    0.003700
     3  N   -0.196918
     4  H    0.117098
     5  H    0.092768
     6  H    0.093434
 Sum of Mulliken charges =   0.00000

 Dipole moment (field-independent basis, Debye):
    X=              4.0841    Y=             -0.0406    Z=              0.0335  Tot=              4.0844
 Quadrupole moment (field-independent basis, Debye-Ang):
   XX=            -21.1814   YY=            -17.5486   ZZ=            -18.0839
   XY=              0.0370   XZ=             -0.0853   YZ=             -0.0352

 Normal termination of Gaussian 09 at Wed Aug 26 22:48:39 2020.
