 Gaussian 09, Revision D.01,
 Gaussian 09:  ES64L-G09RevD.01 24-Apr-2013

 --------------------
 #p B2PLYPD3/Def2QZVP
 --------------------

 ------------
 cyanomethane
 ------------
 Symbolic Z-matrix:
 Charge =  0 Multiplicity = 1

                         Standard orientation:
 ---------------------------------------------------------------------
 Center     Atomic      Atomic             Coordinates (Angstroms)
 Number     Number       Type             X           Y           Z
 ---------------------------------------------------------------------
      1          6           0       -1.167155   -0.006287   -0.013046
      2          6           0        0.283836   -0.013227   -0.012408
      3          7           0        1.425437    0.004893    0.004297
      4          1           0       -1.536114    1.056202   -0.217255
      5          1           0       -1.520590   -0.259177    1.034246
      6          1           0       -1.621437   -0.714195   -0.694339
 ---------------------------------------------------------------------

 SCF Done:  E(RB2PLYPD3) =  -132.532401225     A.U. after   12 cycles
 E2(B2PLYPD3) =    -0.1798407242D+00 E(B2PLYPD3) =    -0.13271224194905D+03

 The electronic state is 1-A.
 Alpha  occ. eigenvalues --  -14.83848 -10.67912 -10.65904  -1.04656  -0.88629
 Alpha  occ. eigenvalues --   -0.59666  -0.53790  -0.52459  -0.44776  -0.39421
 Alpha  occ. eigenvalues --   -0.39072
 Alpha virt. eigenvalues --    0.03583   0.07512   0.07889   0.10183   0.11561
 Alpha virt. eigenvalues --    0.11957   0.15415   0.16026   0.16944   0.19990
 Alpha virt. eigenvalues --    0.20087   0.25462   0.32639   0.33397   0.34754

 Mulliken charges:
               1
     1  C   -0.095123
     2  C   -0.000344
     3  N   -0.198763
     4  H    0.097324
     5  H    0.094875
     6  H    0.102031
 Sum of Mulliken charges =   0.00000

 Dipole moment (field-independent basis, Debye):
    X=             -4.0938    Y=             -0.0120    Z=              0.0131  Tot=              4.0939
 Quadrupole moment (field-independent basis, Debye-Ang):
   XX=            -21.0438   YY=            -17.6810   ZZ=            -17.8213
   XY=              0.0288   XZ=             -0.0141   YZ=              0.0569

 Normal termination of Gaussian 09 at Wed Aug 26 13:33:47 2020.
