 Gaussian 09, Revision D.01,
 Gaussian 09:  ES64L-G09RevD.01 24-Apr-2013

 --------------------
 #p B2PLYPD3/Def2QZVP
 --------------------

 ------------
 cyanomethane
 ------------
 Symbolic Z-matrix:
 Charge =  0 Multiplicity = 1

                         Standard orientation:
 ---------------------------------------------------------------------
 Center     Atomic      Atomic             Coordinates (Angstroms)
 Number     Number       Type             X           Y           Z
 ---------------------------------------------------------------------
      1          6           0       -1.159257    0.014128   -0.002886
      2          6           0        0.276196    0.020194   -0.021809
      3          7           0        1.427850   -0.016945    0.009458
      4          1           0       -1.520736    0.978319   -0.352139
      5          1           0       -1.543922   -0.194261    1.073358
      6          1           0       -1.631924   -0.871373   -0.639250
 ---------------------------------------------------------------------

 SCF Done:  E(RB2PLYPD3) =  -132.525610739     A.U. after   12 cycles
 E2(B2PLYPD3) =    -0.1812035886D+00 E(B2PLYPD3) =    -0.13270681432753D+03

 The electronic state is 1-A.
 Alpha  occ. eigenvalues --  -14.84194 -10.68518 -10.66184  -1.04289  -0.88508
 Alpha  occ. eigenvalues --   -0.59464  -0.54085  -0.51448  -0.44872  -0.39072
 Alpha  occ. eigenvalues --   -0.38642
 Alpha virt. eigenvalues --    0.03342   0.06427   0.07722   0.10106   0.11463
 Alpha virt. eigenvalues --    0.12036   0.15429   0.16179   0.16615   0.19975
 Alpha virt. eigenvalues --    0.20175   0.25716   0.32115   0.32993   0.34442

 Mulliken charges:
               1
     1  C   -0.100391
     2  C    0.002810
     3  N   -0.203159
     4  H    0.107233
     5  H    0.098012
     6  H    0.095495
 Sum of Mulliken charges =   0.00000

 Dipole moment (field-independent basis, Debye):
    X=             -4.0853    Y=              0.0273    Z=              0.0054  Tot=              4.0853
 Quadrupole moment (field-independent basis, Debye-Ang):
   XX=            -21.1218   YY=            -17.6911   ZZ=            -17.9087
   XY=              0.1802   XZ=             -0.0622   YZ=             -0.0730

 Normal termination of Gaussian 09 at Wed Aug 26 15:02:45 2020.
