 Gaussian 09, Revision D.01,
 Gaussian 09:  ES64L-G09RevD.01 24-Apr-2013

 --------------------
 #p B2PLYPD3/Def2QZVP
 --------------------

 ------------
 cyanomethane
 ------------
 Symbolic Z-matrix:
 Charge =  0 Multiplicity = 1

                         Standard orientation:
 ---------------------------------------------------------------------
 Center     Atomic      Atomic             Coordinates (Angstroms)
 Number     Number       Type             X           Y           Z
 ---------------------------------------------------------------------
      1          6           0        1.179657   -0.003085   -0.013570
      2          6           0       -0.284190   -0.022805   -0.006307
      3          7           0       -1.433484    0.017457   -0.001552
      4          1           0        1.647907    1.002323   -0.318227
      5          1           0        1.557118   -0.814964   -0.585977
      6          1           0        1.456565   -0.154215    1.034326
 ---------------------------------------------------------------------

 SCF Done:  E(RB2PLYPD3) =  -132.531219905     A.U. after   12 cycles
 E2(B2PLYPD3) =    -0.1803603310D+00 E(B2PLYPD3) =    -0.13271158023619D+03

 The electronic state is 1-A.
 Alpha  occ. eigenvalues --  -14.84071 -10.67555 -10.66175  -1.04292  -0.88917
 Alpha  occ. eigenvalues --   -0.59395  -0.54512  -0.52630  -0.44764  -0.39315
 Alpha  occ. eigenvalues --   -0.38964
 Alpha virt. eigenvalues --    0.03585   0.07371   0.08424   0.10191   0.11309
 Alpha virt. eigenvalues --    0.11746   0.15353   0.15530   0.17280   0.20036
 Alpha virt. eigenvalues --    0.20157   0.25264   0.32385   0.33768   0.35031

 Mulliken charges:
               1
     1  C   -0.091511
     2  C   -0.000893
     3  N   -0.203557
     4  H    0.096933
     5  H    0.102233
     6  H    0.096794
 Sum of Mulliken charges =   0.00000

 Dipole moment (field-independent basis, Debye):
    X=              4.1188    Y=             -0.0442    Z=              0.0469  Tot=              4.1193
 Quadrupole moment (field-independent basis, Debye-Ang):
   XX=            -21.0291   YY=            -17.6435   ZZ=            -17.8767
   XY=              0.1439   XZ=             -0.0112   YZ=              0.0617

 Normal termination of Gaussian 09 at Wed Aug 26 14:59:16 2020.
