 Gaussian 09, Revision D.01,
 Gaussian 09:  ES64L-G09RevD.01 24-Apr-2013

 --------------------
 #p B2PLYPD3/Def2QZVP
 --------------------

 ------------
 cyanomethane
 ------------
 Symbolic Z-matrix:
 Charge =  0 Multiplicity = 1

                         Standard orientation:
 ---------------------------------------------------------------------
 Center     Atomic      Atomic             Coordinates (Angstroms)
 Number     Number       Type             X           Y           Z
 ---------------------------------------------------------------------
      1          6           0        1.173038    0.007878   -0.001886
      2          6           0       -0.274365   -0.000464   -0.012458
      3          7           0       -1.431666   -0.001668    0.004875
      4          1           0        1.531492    1.006980   -0.088354
      5          1           0        1.572535   -0.614044   -0.790252
      6          1           0        1.525601   -0.425738    0.930541
 ---------------------------------------------------------------------

 SCF Done:  E(RB2PLYPD3) =  -132.535161157     A.U. after   11 cycles
 E2(B2PLYPD3) =    -0.1805566034D+00 E(B2PLYPD3) =    -0.13271571776027D+03

 The electronic state is 1-A.
 Alpha  occ. eigenvalues --  -14.84237 -10.66668 -10.66269  -1.04014  -0.89684
 Alpha  occ. eigenvalues --   -0.60036  -0.54861  -0.53659  -0.44793  -0.39052
 Alpha  occ. eigenvalues --   -0.38872
 Alpha virt. eigenvalues --    0.03823   0.07856   0.08078   0.10169   0.11324
 Alpha virt. eigenvalues --    0.11575   0.15488   0.16183   0.16487   0.20079
 Alpha virt. eigenvalues --    0.20155   0.25521   0.32892   0.34455   0.35154

 Mulliken charges:
               1
     1  C   -0.078319
     2  C   -0.001083
     3  N   -0.208267
     4  H    0.099034
     5  H    0.094501
     6  H    0.094133
 Sum of Mulliken charges =   0.00000

 Dipole moment (field-independent basis, Debye):
    X=              4.1348    Y=             -0.0098    Z=              0.0029  Tot=              4.1348
 Quadrupole moment (field-independent basis, Debye-Ang):
   XX=            -20.9692   YY=            -17.6535   ZZ=            -17.8214
   XY=             -0.0602   XZ=              0.0191   YZ=              0.0011

 Normal termination of Gaussian 09 at Thu Aug 27 00:03:55 2020.
