 Gaussian 09, Revision D.01,
 Gaussian 09:  ES64L-G09RevD.01 24-Apr-2013

 --------------------
 #p B2PLYPD3/Def2QZVP
 --------------------

 ------------
 cyanomethane
 ------------
 Symbolic Z-matrix:
 Charge =  0 Multiplicity = 1

                         Standard orientation:
 ---------------------------------------------------------------------
 Center     Atomic      Atomic             Coordinates (Angstroms)
 Number     Number       Type             X           Y           Z
 ---------------------------------------------------------------------
      1          6           0        1.174877   -0.002303   -0.007861
      2          6           0       -0.271879    0.016236    0.003302
      3          7           0       -1.430362   -0.008051    0.000657
      4          1           0        1.553143   -0.062359    1.001915
      5          1           0        1.523837    0.902823   -0.444803
      6          1           0        1.517565   -0.867701   -0.534359
 ---------------------------------------------------------------------

 SCF Done:  E(RB2PLYPD3) =  -132.534778350     A.U. after   11 cycles
 E2(B2PLYPD3) =    -0.1805782785D+00 E(B2PLYPD3) =    -0.13271535662838D+03

 The electronic state is 1-A.
 Alpha  occ. eigenvalues --  -14.84227 -10.66479 -10.66247  -1.03941  -0.89885
 Alpha  occ. eigenvalues --   -0.59893  -0.55127  -0.53968  -0.44753  -0.38986
 Alpha  occ. eigenvalues --   -0.38850
 Alpha virt. eigenvalues --    0.03853   0.07929   0.08199   0.10165   0.11303
 Alpha virt. eigenvalues --    0.11518   0.15473   0.16121   0.16354   0.20091
 Alpha virt. eigenvalues --    0.20168   0.25532   0.32933   0.34604   0.35140

 Mulliken charges:
               1
     1  C   -0.079442
     2  C   -0.001759
     3  N   -0.209513
     4  H    0.093414
     5  H    0.098564
     6  H    0.098737
 Sum of Mulliken charges =   0.00000

 Dipole moment (field-independent basis, Debye):
    X=              4.1337    Y=              0.0082    Z=              0.0118  Tot=              4.1337
 Quadrupole moment (field-independent basis, Debye-Ang):
   XX=            -21.0226   YY=            -17.6237   ZZ=            -17.7984
   XY=             -0.0469   XZ=              0.0646   YZ=             -0.0019

 Normal termination of Gaussian 09 at Thu Aug 27 01:02:38 2020.
