 Gaussian 09, Revision D.01,
 Gaussian 09:  ES64L-G09RevD.01 24-Apr-2013

 --------------------
 #p B2PLYPD3/Def2QZVP
 --------------------

 ------------
 cyanomethane
 ------------
 Symbolic Z-matrix:
 Charge =  0 Multiplicity = 1

                         Standard orientation:
 ---------------------------------------------------------------------
 Center     Atomic      Atomic             Coordinates (Angstroms)
 Number     Number       Type             X           Y           Z
 ---------------------------------------------------------------------
      1          6           0        1.170045    0.006589   -0.000912
      2          6           0       -0.273220   -0.003179   -0.021990
      3          7           0       -1.431766   -0.000474    0.008187
      4          1           0        1.534557    1.036048   -0.104245
      5          1           0        1.596027   -0.644452   -0.776337
      6          1           0        1.510825   -0.408735    0.960686
 ---------------------------------------------------------------------

 SCF Done:  E(RB2PLYPD3) =  -132.534539451     A.U. after   12 cycles
 E2(B2PLYPD3) =    -0.1809778554D+00 E(B2PLYPD3) =    -0.13271551730645D+03

 The electronic state is 1-A.
 Alpha  occ. eigenvalues --  -14.84286 -10.67287 -10.66318  -1.03967  -0.89284
 Alpha  occ. eigenvalues --   -0.59841  -0.54291  -0.53314  -0.44809  -0.38942
 Alpha  occ. eigenvalues --   -0.38765
 Alpha virt. eigenvalues --    0.03711   0.07595   0.07718   0.10149   0.11383
 Alpha virt. eigenvalues --    0.11637   0.15447   0.16097   0.16509   0.20077
 Alpha virt. eigenvalues --    0.20159   0.25602   0.32734   0.34154   0.34750

 Mulliken charges:
               1
     1  C   -0.086477
     2  C    0.000366
     3  N   -0.208445
     4  H    0.100988
     5  H    0.096567
     6  H    0.097000
 Sum of Mulliken charges =   0.00000

 Dipole moment (field-independent basis, Debye):
    X=              4.1259    Y=             -0.0142    Z=              0.0047  Tot=              4.1259
 Quadrupole moment (field-independent basis, Debye-Ang):
   XX=            -21.0443   YY=            -17.6560   ZZ=            -17.8648
   XY=             -0.0673   XZ=              0.0251   YZ=             -0.0003

 Normal termination of Gaussian 09 at Thu Aug 27 00:13:57 2020.
