 Gaussian 09, Revision D.01,
 Gaussian 09:  ES64L-G09RevD.01 24-Apr-2013

 --------------------
 #p B2PLYPD3/Def2QZVP
 --------------------

 ------------
 cyanomethane
 ------------
 Symbolic Z-matrix:
 Charge =  0 Multiplicity = 1

                         Standard orientation:
 ---------------------------------------------------------------------
 Center     Atomic      Atomic             Coordinates (Angstroms)
 Number     Number       Type             X           Y           Z
 ---------------------------------------------------------------------
      1          6           0       -1.186418    0.006168    0.001505
      2          6           0        0.286559   -0.006177   -0.017473
      3          7           0        1.434460    0.000168    0.008049
      4          1           0       -1.519512    0.999562   -0.264650
      5          1           0       -1.542150   -0.256380    1.004611
      6          1           0       -1.580401   -0.744308   -0.700493
 ---------------------------------------------------------------------

 SCF Done:  E(RB2PLYPD3) =  -132.535682566     A.U. after   12 cycles
 E2(B2PLYPD3) =    -0.1799511864D+00 E(B2PLYPD3) =    -0.13271563375203D+03

 The electronic state is 1-A.
 Alpha  occ. eigenvalues --  -14.83993 -10.67377 -10.66090  -1.04311  -0.88874
 Alpha  occ. eigenvalues --   -0.59148  -0.54307  -0.53414  -0.44706  -0.39303
 Alpha  occ. eigenvalues --   -0.39204
 Alpha virt. eigenvalues --    0.03733   0.07975   0.08244   0.10223   0.11383
 Alpha virt. eigenvalues --    0.11533   0.15263   0.16270   0.16318   0.20028
 Alpha virt. eigenvalues --    0.20078   0.25065   0.32590   0.34402   0.34814

 Mulliken charges:
               1
     1  C   -0.090183
     2  C   -0.003954
     3  N   -0.202703
     4  H    0.101530
     5  H    0.098100
     6  H    0.097209
 Sum of Mulliken charges =   0.00000

 Dipole moment (field-independent basis, Debye):
    X=             -4.1194    Y=             -0.0029    Z=             -0.0040  Tot=              4.1194
 Quadrupole moment (field-independent basis, Debye-Ang):
   XX=            -21.0728   YY=            -17.6714   ZZ=            -17.7806
   XY=              0.0512   XZ=             -0.0479   YZ=             -0.0156

 Normal termination of Gaussian 09 at Thu Aug 27 00:11:18 2020.
