 Gaussian 09, Revision D.01,
 Gaussian 09:  ES64L-G09RevD.01 24-Apr-2013

 --------------------
 #p B2PLYPD3/Def2QZVP
 --------------------

 ------------
 cyanomethane
 ------------
 Symbolic Z-matrix:
 Charge =  0 Multiplicity = 1

                         Standard orientation:
 ---------------------------------------------------------------------
 Center     Atomic      Atomic             Coordinates (Angstroms)
 Number     Number       Type             X           Y           Z
 ---------------------------------------------------------------------
      1          6           0       -1.169901    0.014998    0.027393
      2          6           0        0.298330    0.029986    0.024201
      3          7           0        1.442816   -0.009214   -0.016362
      4          1           0       -1.587844   -0.429486    0.941070
      5          1           0       -1.545917   -0.777367   -0.862396
      6          1           0       -1.736522    1.001448   -0.273701
 ---------------------------------------------------------------------

 SCF Done:  E(RB2PLYPD3) =  -132.515262843     A.U. after   12 cycles
 E2(B2PLYPD3) =    -0.1813382565D+00 E(B2PLYPD3) =    -0.13269660109951D+03

 The electronic state is 1-A.
 Alpha  occ. eigenvalues --  -14.84271 -10.69646 -10.66474  -1.04656  -0.87211
 Alpha  occ. eigenvalues --   -0.59672  -0.53123  -0.49833  -0.45024  -0.39586
 Alpha  occ. eigenvalues --   -0.38717
 Alpha virt. eigenvalues --    0.02979   0.06136   0.07424   0.10170   0.11384
 Alpha virt. eigenvalues --    0.12215   0.15226   0.16005   0.17801   0.19999
 Alpha virt. eigenvalues --    0.20134   0.25120   0.30988   0.31796   0.34838

 Mulliken charges:
               1
     1  C   -0.104037
     2  C    0.009607
     3  N   -0.197050
     4  H    0.105277
     5  H    0.085757
     6  H    0.100445
 Sum of Mulliken charges =   0.00000

 Dipole moment (field-independent basis, Debye):
    X=             -4.0958    Y=             -0.0089    Z=              0.0312  Tot=              4.0960
 Quadrupole moment (field-independent basis, Debye-Ang):
   XX=            -20.8702   YY=            -17.9327   ZZ=            -17.9904
   XY=             -0.0091   XZ=              0.1196   YZ=             -0.1759

 Normal termination of Gaussian 09 at Wed Aug 26 21:23:50 2020.
