 Gaussian 09, Revision D.01,
 Gaussian 09:  ES64L-G09RevD.01 24-Apr-2013

 --------------------
 #p B2PLYPD3/Def2QZVP
 --------------------

 ------------
 cyanomethane
 ------------
 Symbolic Z-matrix:
 Charge =  0 Multiplicity = 1

                         Standard orientation:
 ---------------------------------------------------------------------
 Center     Atomic      Atomic             Coordinates (Angstroms)
 Number     Number       Type             X           Y           Z
 ---------------------------------------------------------------------
      1          6           0        1.215992   -0.009479   -0.007875
      2          6           0       -0.302059    0.045491   -0.040092
      3          7           0       -1.435054   -0.013861    0.023002
      4          1           0        1.416202   -0.878516   -0.594752
      5          1           0        1.517704   -0.183261    1.056838
      6          1           0        1.627872    0.942737   -0.335296
 ---------------------------------------------------------------------

 SCF Done:  E(RB2PLYPD3) =  -132.530256812     A.U. after   12 cycles
 E2(B2PLYPD3) =    -0.1791267335D+00 E(B2PLYPD3) =    -0.13270938354530D+03

 The electronic state is 1-A.
 Alpha  occ. eigenvalues --  -14.83534 -10.67858 -10.65711  -1.04614  -0.88252
 Alpha  occ. eigenvalues --   -0.57628  -0.55203  -0.52822  -0.44422  -0.39745
 Alpha  occ. eigenvalues --   -0.39463
 Alpha virt. eigenvalues --    0.03603   0.08256   0.09018   0.10317   0.11176
 Alpha virt. eigenvalues --    0.11542   0.14788   0.15831   0.16228   0.19907
 Alpha virt. eigenvalues --    0.20058   0.24333   0.32201   0.33727   0.35466

 Mulliken charges:
               1
     1  C   -0.106534
     2  C   -0.012003
     3  N   -0.196220
     4  H    0.110831
     5  H    0.099385
     6  H    0.104540
 Sum of Mulliken charges =   0.00000

 Dipole moment (field-independent basis, Debye):
    X=              4.1087    Y=              0.0125    Z=             -0.0141  Tot=              4.1087
 Quadrupole moment (field-independent basis, Debye-Ang):
   XX=            -21.2975   YY=            -17.5179   ZZ=            -17.7878
   XY=              0.0734   XZ=              0.2129   YZ=              0.0550

 Normal termination of Gaussian 09 at Wed Aug 26 18:38:38 2020.
