 Gaussian 09, Revision D.01,
 Gaussian 09:  ES64L-G09RevD.01 24-Apr-2013

 --------------------
 #p B2PLYPD3/Def2QZVP
 --------------------

 ------------
 cyanomethane
 ------------
 Symbolic Z-matrix:
 Charge =  0 Multiplicity = 1

                         Standard orientation:
 ---------------------------------------------------------------------
 Center     Atomic      Atomic             Coordinates (Angstroms)
 Number     Number       Type             X           Y           Z
 ---------------------------------------------------------------------
      1          6           0        1.183642    0.012038   -0.012567
      2          6           0       -0.283655    0.020960   -0.025241
      3          7           0       -1.440769   -0.015904    0.018027
      4          1           0        1.618022   -0.190740    0.993930
      5          1           0        1.498012    0.909375   -0.305406
      6          1           0        1.569426   -0.805294   -0.587859
 ---------------------------------------------------------------------

 SCF Done:  E(RB2PLYPD3) =  -132.526677667     A.U. after   12 cycles
 E2(B2PLYPD3) =    -0.1806054174D+00 E(B2PLYPD3) =    -0.13270728308464D+03

 The electronic state is 1-A.
 Alpha  occ. eigenvalues --  -14.84396 -10.66478 -10.66301  -1.03995  -0.89825
 Alpha  occ. eigenvalues --   -0.60247  -0.56438  -0.52314  -0.44866  -0.39321
 Alpha  occ. eigenvalues --   -0.38871
 Alpha virt. eigenvalues --    0.03726   0.07476   0.08811   0.10177   0.10934
 Alpha virt. eigenvalues --    0.11672   0.15410   0.16372   0.16721   0.19968
 Alpha virt. eigenvalues --    0.20224   0.25187   0.32672   0.34128   0.35907

 Mulliken charges:
               1
     1  C   -0.069500
     2  C    0.000078
     3  N   -0.207799
     4  H    0.083650
     5  H    0.100923
     6  H    0.092648
 Sum of Mulliken charges =   0.00000

 Dipole moment (field-independent basis, Debye):
    X=              4.1501    Y=              0.0096    Z=             -0.0135  Tot=              4.1501
 Quadrupole moment (field-independent basis, Debye-Ang):
   XX=            -20.7805   YY=            -17.6098   ZZ=            -17.9606
   XY=             -0.1822   XZ=              0.1952   YZ=             -0.0238

 Normal termination of Gaussian 09 at Wed Aug 26 11:52:42 2020.
