 Gaussian 09, Revision D.01,
 Gaussian 09:  ES64L-G09RevD.01 24-Apr-2013

 --------------------
 #p B2PLYPD3/Def2QZVP
 --------------------

 ------------
 cyanomethane
 ------------
 Symbolic Z-matrix:
 Charge =  0 Multiplicity = 1

                         Standard orientation:
 ---------------------------------------------------------------------
 Center     Atomic      Atomic             Coordinates (Angstroms)
 Number     Number       Type             X           Y           Z
 ---------------------------------------------------------------------
      1          6           0       -1.182564    0.000503   -0.001418
      2          6           0        0.286496    0.008370   -0.014068
      3          7           0        1.434320   -0.000632    0.007880
      4          1           0       -1.543452   -0.314507    0.970437
      5          1           0       -1.515951   -0.719149   -0.718601
      6          1           0       -1.604428    0.984838   -0.214073
 ---------------------------------------------------------------------

 SCF Done:  E(RB2PLYPD3) =  -132.535719516     A.U. after   12 cycles
 E2(B2PLYPD3) =    -0.1798161418D+00 E(B2PLYPD3) =    -0.13271553565801D+03

 The electronic state is 1-A.
 Alpha  occ. eigenvalues --  -14.84027 -10.66975 -10.66118  -1.04355  -0.89168
 Alpha  occ. eigenvalues --   -0.59627  -0.54332  -0.53604  -0.44758  -0.39345
 Alpha  occ. eigenvalues --   -0.39240
 Alpha virt. eigenvalues --    0.03793   0.07995   0.08350   0.10224   0.11377
 Alpha virt. eigenvalues --    0.11553   0.15360   0.16166   0.16698   0.20024
 Alpha virt. eigenvalues --    0.20088   0.25141   0.32713   0.34632   0.35023

 Mulliken charges:
               1
     1  C   -0.081611
     2  C   -0.003101
     3  N   -0.202721
     4  H    0.094370
     5  H    0.097228
     6  H    0.095835
 Sum of Mulliken charges =   0.00000

 Dipole moment (field-independent basis, Debye):
    X=             -4.1278    Y=             -0.0158    Z=             -0.0022  Tot=              4.1278
 Quadrupole moment (field-independent basis, Debye-Ang):
   XX=            -20.9436   YY=            -17.6783   ZZ=            -17.8007
   XY=             -0.0229   XZ=             -0.0753   YZ=              0.0192

 Normal termination of Gaussian 09 at Thu Aug 27 00:12:10 2020.
