 Gaussian 09, Revision D.01,
 Gaussian 09:  ES64L-G09RevD.01 24-Apr-2013

 --------------------
 #p B2PLYPD3/Def2QZVP
 --------------------

 ------------
 cyanomethane
 ------------
 Symbolic Z-matrix:
 Charge =  0 Multiplicity = 1

                         Standard orientation:
 ---------------------------------------------------------------------
 Center     Atomic      Atomic             Coordinates (Angstroms)
 Number     Number       Type             X           Y           Z
 ---------------------------------------------------------------------
      1          6           0       -1.159829    0.032911   -0.009483
      2          6           0        0.263407    0.059146   -0.023388
      3          7           0        1.434126   -0.043436    0.023096
      4          1           0       -1.428969    1.008588   -0.076841
      5          1           0       -1.716849   -0.539999    0.990841
      6          1           0       -1.514527   -0.716885   -0.878451
 ---------------------------------------------------------------------

 SCF Done:  E(RB2PLYPD3) =  -132.497906199     A.U. after   13 cycles
 E2(B2PLYPD3) =    -0.1840253084D+00 E(B2PLYPD3) =    -0.13268193150717D+03

 The electronic state is 1-A.
 Alpha  occ. eigenvalues --  -14.84874 -10.68887 -10.66790  -1.03458  -0.89088
 Alpha  occ. eigenvalues --   -0.59179  -0.55904  -0.49621  -0.44973  -0.38613
 Alpha  occ. eigenvalues --   -0.37610
 Alpha virt. eigenvalues --    0.02410   0.04847   0.08207   0.09936   0.10811
 Alpha virt. eigenvalues --    0.12179   0.15192   0.15722   0.16805   0.19946
 Alpha virt. eigenvalues --    0.20436   0.25820   0.30401   0.31813   0.34574

 Mulliken charges:
               1
     1  C   -0.108875
     2  C    0.007632
     3  N   -0.213194
     4  H    0.120193
     5  H    0.091581
     6  H    0.102663
 Sum of Mulliken charges =   0.00000

 Dipole moment (field-independent basis, Debye):
    X=             -4.0694    Y=              0.0358    Z=             -0.0612  Tot=              4.0701
 Quadrupole moment (field-independent basis, Debye-Ang):
   XX=            -21.2873   YY=            -17.5715   ZZ=            -18.1527
   XY=              0.4386   XZ=             -0.2347   YZ=              0.0591

 Normal termination of Gaussian 09 at Wed Aug 26 19:11:59 2020.
