 Gaussian 09, Revision D.01,
 Gaussian 09:  ES64L-G09RevD.01 24-Apr-2013

 --------------------
 #p B2PLYPD3/Def2QZVP
 --------------------

 ------------
 cyanomethane
 ------------
 Symbolic Z-matrix:
 Charge =  0 Multiplicity = 1

                         Standard orientation:
 ---------------------------------------------------------------------
 Center     Atomic      Atomic             Coordinates (Angstroms)
 Number     Number       Type             X           Y           Z
 ---------------------------------------------------------------------
      1          6           0       -1.171347    0.016932    0.031623
      2          6           0        0.274328    0.045082    0.010403
      3          7           0        1.414293   -0.032319   -0.014922
      4          1           0       -1.648440   -0.725729   -0.661584
      5          1           0       -1.434376    0.847890   -0.315268
      6          1           0       -1.435127   -0.268010    0.829150
 ---------------------------------------------------------------------

 SCF Done:  E(RB2PLYPD3) =  -132.474735608     A.U. after   12 cycles
 E2(B2PLYPD3) =    -0.1787560992D+00 E(B2PLYPD3) =    -0.13265349170764D+03

 The electronic state is 1-A.
 Alpha  occ. eigenvalues --  -14.83819 -10.65713 -10.63534  -1.04697  -0.92598
 Alpha  occ. eigenvalues --   -0.61869  -0.60041  -0.52555  -0.44740  -0.39855
 Alpha  occ. eigenvalues --   -0.39055
 Alpha virt. eigenvalues --    0.03715   0.08314   0.10156   0.10328   0.10907
 Alpha virt. eigenvalues --    0.11807   0.15716   0.16107   0.17060   0.19941
 Alpha virt. eigenvalues --    0.20216   0.25580   0.32524   0.34699   0.37511

 Mulliken charges:
               1
     1  C   -0.110156
     2  C    0.002174
     3  N   -0.202612
     4  H    0.072315
     5  H    0.107856
     6  H    0.130422
 Sum of Mulliken charges =   0.00000

 Dipole moment (field-independent basis, Debye):
    X=             -4.1039    Y=              0.0453    Z=              0.0152  Tot=              4.1042
 Quadrupole moment (field-independent basis, Debye-Ang):
   XX=            -20.6488   YY=            -17.5478   ZZ=            -17.6016
   XY=              0.3182   XZ=              0.2084   YZ=             -0.2261

 Normal termination of Gaussian 09 at Wed Aug 26 21:47:14 2020.
