 Gaussian 09, Revision D.01,
 Gaussian 09:  ES64L-G09RevD.01 24-Apr-2013

 --------------------
 #p B2PLYPD3/Def2QZVP
 --------------------

 ------------
 cyanomethane
 ------------
 Symbolic Z-matrix:
 Charge =  0 Multiplicity = 1

                         Standard orientation:
 ---------------------------------------------------------------------
 Center     Atomic      Atomic             Coordinates (Angstroms)
 Number     Number       Type             X           Y           Z
 ---------------------------------------------------------------------
      1          6           0        1.168812   -0.006680   -0.003772
      2          6           0       -0.262687    0.003322   -0.036157
      3          7           0       -1.434501    0.000221    0.012373
      4          1           0        1.579327    1.006344   -0.254825
      5          1           0        1.586073   -0.772447   -0.618842
      6          1           0        1.439359   -0.215298    1.026631
 ---------------------------------------------------------------------

 SCF Done:  E(RB2PLYPD3) =  -132.531374423     A.U. after   12 cycles
 E2(B2PLYPD3) =    -0.1821266559D+00 E(B2PLYPD3) =    -0.13271350107929D+03

 The electronic state is 1-A.
 Alpha  occ. eigenvalues --  -14.84614 -10.67005 -10.66650  -1.03442  -0.89772
 Alpha  occ. eigenvalues --   -0.60134  -0.54650  -0.53642  -0.44834  -0.38594
 Alpha  occ. eigenvalues --   -0.38327
 Alpha virt. eigenvalues --    0.03715   0.07262   0.07654   0.10117   0.11207
 Alpha virt. eigenvalues --    0.11593   0.15490   0.15730   0.16630   0.20148
 Alpha virt. eigenvalues --    0.20245   0.25808   0.32552   0.34096   0.34958

 Mulliken charges:
               1
     1  C   -0.085161
     2  C    0.002880
     3  N   -0.215774
     4  H    0.097696
     5  H    0.100761
     6  H    0.099599
 Sum of Mulliken charges =   0.00000

 Dipole moment (field-independent basis, Debye):
    X=              4.1467    Y=             -0.0143    Z=              0.0226  Tot=              4.1468
 Quadrupole moment (field-independent basis, Debye-Ang):
   XX=            -21.0738   YY=            -17.6801   ZZ=            -17.8705
   XY=             -0.0093   XZ=              0.0337   YZ=              0.0357

 Normal termination of Gaussian 09 at Wed Aug 26 15:23:24 2020.
