 Gaussian 09, Revision D.01,
 Gaussian 09:  ES64L-G09RevD.01 24-Apr-2013

 --------------------
 #p B2PLYPD3/Def2QZVP
 --------------------

 ------------
 cyanomethane
 ------------
 Symbolic Z-matrix:
 Charge =  0 Multiplicity = 1

                         Standard orientation:
 ---------------------------------------------------------------------
 Center     Atomic      Atomic             Coordinates (Angstroms)
 Number     Number       Type             X           Y           Z
 ---------------------------------------------------------------------
      1          6           0        1.198903   -0.039024    0.013003
      2          6           0       -0.259693    0.012359   -0.076835
      3          7           0       -1.457569    0.000253    0.038643
      4          1           0        1.559962    0.974875   -0.283611
      5          1           0        1.486311   -0.691452   -0.591182
      6          1           0        1.521456   -0.125206    0.987289
 ---------------------------------------------------------------------

 SCF Done:  E(RB2PLYPD3) =  -132.502069874     A.U. after   13 cycles
 E2(B2PLYPD3) =    -0.1844832126D+00 E(B2PLYPD3) =    -0.13268655308662D+03

 The electronic state is 1-A.
 Alpha  occ. eigenvalues --  -14.85551 -10.67634 -10.65429  -1.02285  -0.91034
 Alpha  occ. eigenvalues --   -0.60466  -0.58554  -0.53015  -0.44913  -0.38295
 Alpha  occ. eigenvalues --   -0.37742
 Alpha virt. eigenvalues --    0.03644   0.06653   0.08249   0.10005   0.10533
 Alpha virt. eigenvalues --    0.11337   0.15309   0.15582   0.16599   0.20200
 Alpha virt. eigenvalues --    0.20399   0.25552   0.32021   0.33974   0.36119

 Mulliken charges:
               1
     1  C   -0.079742
     2  C    0.008049
     3  N   -0.227648
     4  H    0.085910
     5  H    0.114114
     6  H    0.099317
 Sum of Mulliken charges =   0.00000

 Dipole moment (field-independent basis, Debye):
    X=              4.1870    Y=              0.0245    Z=             -0.0184  Tot=              4.1871
 Quadrupole moment (field-independent basis, Debye-Ang):
   XX=            -20.9468   YY=            -17.8527   ZZ=            -17.7849
   XY=              0.1135   XZ=              0.2166   YZ=              0.1494

 Normal termination of Gaussian 09 at Wed Aug 26 23:37:14 2020.
