 Gaussian 09, Revision D.01,
 Gaussian 09:  ES64L-G09RevD.01 24-Apr-2013

 --------------------
 #p B2PLYPD3/Def2QZVP
 --------------------

 ------------
 cyanomethane
 ------------
 Symbolic Z-matrix:
 Charge =  0 Multiplicity = 1

                         Standard orientation:
 ---------------------------------------------------------------------
 Center     Atomic      Atomic             Coordinates (Angstroms)
 Number     Number       Type             X           Y           Z
 ---------------------------------------------------------------------
      1          6           0       -1.188037    0.004202   -0.020951
      2          6           0        0.287765    0.024445    0.013050
      3          7           0        1.435657   -0.009799   -0.003785
      4          1           0       -1.555964   -0.171845    0.975335
      5          1           0       -1.502604   -0.831903   -0.564352
      6          1           0       -1.589397    0.900455   -0.337080
 ---------------------------------------------------------------------

 SCF Done:  E(RB2PLYPD3) =  -132.531955304     A.U. after   12 cycles
 E2(B2PLYPD3) =    -0.1795475480D+00 E(B2PLYPD3) =    -0.13271150285195D+03

 The electronic state is 1-A.
 Alpha  occ. eigenvalues --  -14.84035 -10.66156 -10.66101  -1.04323  -0.89805
 Alpha  occ. eigenvalues --   -0.59932  -0.55917  -0.53326  -0.44746  -0.39548
 Alpha  occ. eigenvalues --   -0.39176
 Alpha virt. eigenvalues --    0.03900   0.08377   0.08677   0.10256   0.11102
 Alpha virt. eigenvalues --    0.11624   0.15327   0.16054   0.16982   0.19983
 Alpha virt. eigenvalues --    0.20133   0.25034   0.32821   0.34508   0.36023

 Mulliken charges:
               1
     1  C   -0.069251
     2  C   -0.002765
     3  N   -0.203869
     4  H    0.084437
     5  H    0.095354
     6  H    0.096094
 Sum of Mulliken charges =   0.00000

 Dipole moment (field-independent basis, Debye):
    X=             -4.1460    Y=             -0.0056    Z=              0.0373  Tot=              4.1461
 Quadrupole moment (field-independent basis, Debye-Ang):
   XX=            -20.8284   YY=            -17.5493   ZZ=            -17.8922
   XY=              0.0410   XZ=             -0.0757   YZ=              0.0011

 Normal termination of Gaussian 09 at Wed Aug 26 12:22:12 2020.
