 Gaussian 09, Revision D.01,
 Gaussian 09:  ES64L-G09RevD.01 24-Apr-2013

 --------------------
 #p B2PLYPD3/Def2QZVP
 --------------------

 ------------
 cyanomethane
 ------------
 Symbolic Z-matrix:
 Charge =  0 Multiplicity = 1

                         Standard orientation:
 ---------------------------------------------------------------------
 Center     Atomic      Atomic             Coordinates (Angstroms)
 Number     Number       Type             X           Y           Z
 ---------------------------------------------------------------------
      1          6           0        1.189140   -0.014080   -0.017296
      2          6           0       -0.253551    0.016462   -0.048986
      3          7           0       -1.426734   -0.008437    0.017595
      4          1           0        1.484814    0.998069   -0.266100
      5          1           0        1.543062   -0.799711   -0.546405
      6          1           0        1.345729   -0.153596    1.087031
 ---------------------------------------------------------------------

 SCF Done:  E(RB2PLYPD3) =  -132.522497605     A.U. after   12 cycles
 E2(B2PLYPD3) =    -0.1822802696D+00 E(B2PLYPD3) =    -0.13270477787438D+03

 The electronic state is 1-A.
 Alpha  occ. eigenvalues --  -14.84360 -10.66713 -10.66501  -1.03186  -0.90387
 Alpha  occ. eigenvalues --   -0.59451  -0.56549  -0.53643  -0.44503  -0.38561
 Alpha  occ. eigenvalues --   -0.37920
 Alpha virt. eigenvalues --    0.03678   0.07838   0.08316   0.10046   0.10854
 Alpha virt. eigenvalues --    0.11651   0.14847   0.15292   0.16229   0.20152
 Alpha virt. eigenvalues --    0.20348   0.25537   0.32626   0.32830   0.35727

 Mulliken charges:
               1
     1  C   -0.104131
     2  C    0.001119
     3  N   -0.221638
     4  H    0.109170
     5  H    0.111594
     6  H    0.103887
 Sum of Mulliken charges =   0.00000

 Dipole moment (field-independent basis, Debye):
    X=              4.1256    Y=              0.0133    Z=              0.0221  Tot=              4.1257
 Quadrupole moment (field-independent basis, Debye-Ang):
   XX=            -21.5400   YY=            -17.4938   ZZ=            -17.7842
   XY=             -0.0676   XZ=              0.0119   YZ=              0.0818

 Normal termination of Gaussian 09 at Wed Aug 26 19:48:49 2020.
