 Gaussian 09, Revision D.01,
 Gaussian 09:  ES64L-G09RevD.01 24-Apr-2013

 --------------------
 #p B2PLYPD3/Def2QZVP
 --------------------

 ------------
 cyanomethane
 ------------
 Symbolic Z-matrix:
 Charge =  0 Multiplicity = 1

                         Standard orientation:
 ---------------------------------------------------------------------
 Center     Atomic      Atomic             Coordinates (Angstroms)
 Number     Number       Type             X           Y           Z
 ---------------------------------------------------------------------
      1          6           0        1.184715    0.004156    0.007295
      2          6           0       -0.273504   -0.002692   -0.021975
      3          7           0       -1.438243   -0.001409    0.007993
      4          1           0        1.501038    1.029352    0.015370
      5          1           0        1.581796   -0.509785   -0.871578
      6          1           0        1.517605   -0.518493    0.888336
 ---------------------------------------------------------------------

 SCF Done:  E(RB2PLYPD3) =  -132.534282738     A.U. after   11 cycles
 E2(B2PLYPD3) =    -0.1812618285D+00 E(B2PLYPD3) =    -0.13271554456674D+03

 The electronic state is 1-A.
 Alpha  occ. eigenvalues --  -14.84417 -10.66950 -10.66494  -1.03653  -0.89497
 Alpha  occ. eigenvalues --   -0.59475  -0.54786  -0.53931  -0.44746  -0.38821
 Alpha  occ. eigenvalues --   -0.38757
 Alpha virt. eigenvalues --    0.03785   0.07771   0.08034   0.10175   0.11244
 Alpha virt. eigenvalues --    0.11349   0.15318   0.16065   0.16182   0.20135
 Alpha virt. eigenvalues --    0.20157   0.25316   0.32603   0.34584   0.34842

 Mulliken charges:
               1
     1  C   -0.086154
     2  C   -0.001189
     3  N   -0.212071
     4  H    0.102016
     5  H    0.096782
     6  H    0.100616
 Sum of Mulliken charges =   0.00000

 Dipole moment (field-independent basis, Debye):
    X=              4.1417    Y=             -0.0011    Z=             -0.0065  Tot=              4.1417
 Quadrupole moment (field-independent basis, Debye-Ang):
   XX=            -21.1045   YY=            -17.6955   ZZ=            -17.7877
   XY=             -0.0601   XZ=              0.0017   YZ=             -0.0168

 Normal termination of Gaussian 09 at Thu Aug 27 00:14:38 2020.
