 Gaussian 09, Revision D.01,
 Gaussian 09:  ES64L-G09RevD.01 24-Apr-2013

 --------------------
 #p B2PLYPD3/Def2QZVP
 --------------------

 ------------
 cyanomethane
 ------------
 Symbolic Z-matrix:
 Charge =  0 Multiplicity = 1

                         Standard orientation:
 ---------------------------------------------------------------------
 Center     Atomic      Atomic             Coordinates (Angstroms)
 Number     Number       Type             X           Y           Z
 ---------------------------------------------------------------------
      1          6           0       -1.179503    0.021514    0.000671
      2          6           0        0.288786   -0.022078   -0.034784
      3          7           0        1.431108    0.007053    0.016930
      4          1           0       -1.529453    1.049710   -0.059595
      5          1           0       -1.553167   -0.470675    0.959743
      6          1           0       -1.590837   -0.625018   -0.813983
 ---------------------------------------------------------------------

 SCF Done:  E(RB2PLYPD3) =  -132.532713336     A.U. after   12 cycles
 E2(B2PLYPD3) =    -0.1799743673D+00 E(B2PLYPD3) =    -0.13271268770368D+03

 The electronic state is 1-A.
 Alpha  occ. eigenvalues --  -14.83918 -10.67999 -10.65995  -1.04531  -0.88384
 Alpha  occ. eigenvalues --   -0.59063  -0.54375  -0.52167  -0.44745  -0.39473
 Alpha  occ. eigenvalues --   -0.39108
 Alpha virt. eigenvalues --    0.03567   0.07599   0.08042   0.10178   0.11404
 Alpha virt. eigenvalues --    0.11790   0.15266   0.16004   0.16780   0.19946
 Alpha virt. eigenvalues --    0.20081   0.25263   0.32496   0.33476   0.34972

 Mulliken charges:
               1
     1  C   -0.095891
     2  C   -0.002060
     3  N   -0.199474
     4  H    0.106315
     5  H    0.095134
     6  H    0.095976
 Sum of Mulliken charges =   0.00000

 Dipole moment (field-independent basis, Debye):
    X=             -4.0961    Y=             -0.0276    Z=             -0.0186  Tot=              4.0962
 Quadrupole moment (field-independent basis, Debye-Ang):
   XX=            -21.0955   YY=            -17.5881   ZZ=            -17.9085
   XY=              0.0499   XZ=             -0.0960   YZ=              0.0033

 Normal termination of Gaussian 09 at Wed Aug 26 15:32:23 2020.
