 Gaussian 09, Revision D.01,
 Gaussian 09:  ES64L-G09RevD.01 24-Apr-2013

 --------------------
 #p B2PLYPD3/Def2QZVP
 --------------------

 ------------
 cyanomethane
 ------------
 Symbolic Z-matrix:
 Charge =  0 Multiplicity = 1

                         Standard orientation:
 ---------------------------------------------------------------------
 Center     Atomic      Atomic             Coordinates (Angstroms)
 Number     Number       Type             X           Y           Z
 ---------------------------------------------------------------------
      1          6           0        1.180224   -0.001444   -0.006104
      2          6           0       -0.262049   -0.004790   -0.034478
      3          7           0       -1.430740    0.000008    0.013797
      4          1           0        1.479397    1.020448   -0.133763
      5          1           0        1.572338   -0.653300   -0.704857
      6          1           0        1.454394   -0.329801    0.985535
 ---------------------------------------------------------------------

 SCF Done:  E(RB2PLYPD3) =  -132.530800694     A.U. after   12 cycles
 E2(B2PLYPD3) =    -0.1814499308D+00 E(B2PLYPD3) =    -0.13271225062523D+03

 The electronic state is 1-A.
 Alpha  occ. eigenvalues --  -14.84407 -10.66461 -10.66230  -1.03477  -0.90338
 Alpha  occ. eigenvalues --   -0.59756  -0.55777  -0.54410  -0.44680  -0.38712
 Alpha  occ. eigenvalues --   -0.38440
 Alpha virt. eigenvalues --    0.03843   0.07937   0.08221   0.10156   0.11072
 Alpha virt. eigenvalues --    0.11476   0.15429   0.15664   0.16225   0.20144
 Alpha virt. eigenvalues --    0.20257   0.25584   0.32880   0.34233   0.35397

 Mulliken charges:
               1
     1  C   -0.084976
     2  C   -0.000628
     3  N   -0.216403
     4  H    0.102134
     5  H    0.101146
     6  H    0.098728
 Sum of Mulliken charges =   0.00000

 Dipole moment (field-independent basis, Debye):
    X=              4.1422    Y=             -0.0049    Z=              0.0053  Tot=              4.1422
 Quadrupole moment (field-independent basis, Debye-Ang):
   XX=            -21.1797   YY=            -17.6066   ZZ=            -17.7601
   XY=             -0.0641   XZ=              0.0408   YZ=              0.0377

 Normal termination of Gaussian 09 at Wed Aug 26 11:02:50 2020.
