 Gaussian 09, Revision D.01,
 Gaussian 09:  ES64L-G09RevD.01 24-Apr-2013

 --------------------
 #p B2PLYPD3/Def2QZVP
 --------------------

 ------------
 cyanomethane
 ------------
 Symbolic Z-matrix:
 Charge =  0 Multiplicity = 1

                         Standard orientation:
 ---------------------------------------------------------------------
 Center     Atomic      Atomic             Coordinates (Angstroms)
 Number     Number       Type             X           Y           Z
 ---------------------------------------------------------------------
      1          6           0       -1.175739   -0.006565    0.002569
      2          6           0        0.281358    0.015531   -0.000509
      3          7           0        1.428273   -0.001852   -0.000059
      4          1           0       -1.523064   -0.297465    0.967672
      5          1           0       -1.492484   -0.747053   -0.726106
      6          1           0       -1.616084    1.003684   -0.253510
 ---------------------------------------------------------------------

 SCF Done:  E(RB2PLYPD3) =  -132.534562984     A.U. after   12 cycles
 E2(B2PLYPD3) =    -0.1798813530D+00 E(B2PLYPD3) =    -0.13271444433742D+03

 The electronic state is 1-A.
 Alpha  occ. eigenvalues --  -14.83941 -10.67244 -10.65992  -1.04398  -0.89149
 Alpha  occ. eigenvalues --   -0.59450  -0.54300  -0.53421  -0.44726  -0.39231
 Alpha  occ. eigenvalues --   -0.39182
 Alpha virt. eigenvalues --    0.03735   0.07719   0.08308   0.10204   0.11556
 Alpha virt. eigenvalues --    0.11586   0.15390   0.16082   0.16568   0.20049
 Alpha virt. eigenvalues --    0.20076   0.25354   0.32575   0.34462   0.34742

 Mulliken charges:
               1
     1  C   -0.089825
     2  C   -0.002963
     3  N   -0.202512
     4  H    0.099557
     5  H    0.100044
     6  H    0.095699
 Sum of Mulliken charges =   0.00000

 Dipole moment (field-independent basis, Debye):
    X=             -4.1089    Y=             -0.0201    Z=              0.0121  Tot=              4.1090
 Quadrupole moment (field-independent basis, Debye-Ang):
   XX=            -21.0611   YY=            -17.6674   ZZ=            -17.7626
   XY=             -0.0352   XZ=             -0.0279   YZ=              0.0118

 Normal termination of Gaussian 09 at Thu Aug 27 00:02:40 2020.
