 Gaussian 09, Revision D.01,
 Gaussian 09:  ES64L-G09RevD.01 24-Apr-2013

 --------------------
 #p B2PLYPD3/Def2QZVP
 --------------------

 ------------
 cyanomethane
 ------------
 Symbolic Z-matrix:
 Charge =  0 Multiplicity = 1

                         Standard orientation:
 ---------------------------------------------------------------------
 Center     Atomic      Atomic             Coordinates (Angstroms)
 Number     Number       Type             X           Y           Z
 ---------------------------------------------------------------------
      1          6           0        1.173866   -0.001407    0.002013
      2          6           0       -0.281870    0.014462   -0.013065
      3          7           0       -1.437601   -0.008542    0.008933
      4          1           0        1.604978   -0.411653    0.932896
      5          1           0        1.552231    1.013126   -0.116551
      6          1           0        1.554020   -0.620008   -0.812563
 ---------------------------------------------------------------------

 SCF Done:  E(RB2PLYPD3) =  -132.534807954     A.U. after   12 cycles
 E2(B2PLYPD3) =    -0.1807333875D+00 E(B2PLYPD3) =    -0.13271554134133D+03

 The electronic state is 1-A.
 Alpha  occ. eigenvalues --  -14.84329 -10.67263 -10.66398  -1.04108  -0.89058
 Alpha  occ. eigenvalues --   -0.60109  -0.53931  -0.53164  -0.44884  -0.39075
 Alpha  occ. eigenvalues --   -0.39021
 Alpha virt. eigenvalues --    0.03711   0.07498   0.07936   0.10151   0.11407
 Alpha virt. eigenvalues --    0.11561   0.15446   0.16228   0.16803   0.20054
 Alpha virt. eigenvalues --    0.20132   0.25411   0.32702   0.34513   0.34660

 Mulliken charges:
               1
     1  C   -0.078812
     2  C    0.000693
     3  N   -0.206001
     4  H    0.093587
     5  H    0.095497
     6  H    0.095036
 Sum of Mulliken charges =   0.00000

 Dipole moment (field-independent basis, Debye):
    X=              4.1337    Y=              0.0091    Z=             -0.0156  Tot=              4.1337
 Quadrupole moment (field-independent basis, Debye-Ang):
   XX=            -20.8808   YY=            -17.7664   ZZ=            -17.8470
   XY=             -0.0747   XZ=              0.0830   YZ=              0.0114

 Normal termination of Gaussian 09 at Wed Aug 26 20:59:29 2020.
