 Gaussian 09, Revision D.01,
 Gaussian 09:  ES64L-G09RevD.01 24-Apr-2013

 --------------------
 #p B2PLYPD3/Def2QZVP
 --------------------

 ------------
 cyanomethane
 ------------
 Symbolic Z-matrix:
 Charge =  0 Multiplicity = 1

                         Standard orientation:
 ---------------------------------------------------------------------
 Center     Atomic      Atomic             Coordinates (Angstroms)
 Number     Number       Type             X           Y           Z
 ---------------------------------------------------------------------
      1          6           0       -1.177029    0.001228   -0.001877
      2          6           0        0.276885    0.021568   -0.001888
      3          7           0        1.439529   -0.012260   -0.000488
      4          1           0       -1.548723    1.044872   -0.024695
      5          1           0       -1.543592   -0.517929    0.922418
      6          1           0       -1.583523   -0.577903   -0.871716
 ---------------------------------------------------------------------

 SCF Done:  E(RB2PLYPD3) =  -132.532504445     A.U. after   12 cycles
 E2(B2PLYPD3) =    -0.1816091152D+00 E(B2PLYPD3) =    -0.13271411356005D+03

 The electronic state is 1-A.
 Alpha  occ. eigenvalues --  -14.84460 -10.67960 -10.66537  -1.03791  -0.88705
 Alpha  occ. eigenvalues --   -0.59488  -0.53829  -0.52846  -0.44840  -0.38843
 Alpha  occ. eigenvalues --   -0.38713
 Alpha virt. eigenvalues --    0.03581   0.07207   0.07590   0.10131   0.11318
 Alpha virt. eigenvalues --    0.11574   0.15330   0.16100   0.16437   0.20070
 Alpha virt. eigenvalues --    0.20169   0.25405   0.32422   0.33906   0.34380

 Mulliken charges:
               1
     1  C   -0.093040
     2  C    0.001589
     3  N   -0.209186
     4  H    0.102079
     5  H    0.099239
     6  H    0.099319
 Sum of Mulliken charges =   0.00000

 Dipole moment (field-independent basis, Debye):
    X=             -4.1270    Y=              0.0047    Z=              0.0057  Tot=              4.1270
 Quadrupole moment (field-independent basis, Debye-Ang):
   XX=            -21.1002   YY=            -17.7227   ZZ=            -17.8863
   XY=              0.1126   XZ=              0.0195   YZ=              0.0008

 Normal termination of Gaussian 09 at Wed Aug 26 23:52:38 2020.
