 Gaussian 09, Revision D.01,
 Gaussian 09:  ES64L-G09RevD.01 24-Apr-2013

 --------------------
 #p B2PLYPD3/Def2QZVP
 --------------------

 ------------
 cyanomethane
 ------------
 Symbolic Z-matrix:
 Charge =  0 Multiplicity = 1

                         Standard orientation:
 ---------------------------------------------------------------------
 Center     Atomic      Atomic             Coordinates (Angstroms)
 Number     Number       Type             X           Y           Z
 ---------------------------------------------------------------------
      1          6           0       -1.170411    0.009686    0.012995
      2          6           0        0.280274    0.024193    0.010726
      3          7           0        1.423832   -0.019211   -0.008993
      4          1           0       -1.618591   -0.739712   -0.666183
      5          1           0       -1.476795    0.899848   -0.320669
      6          1           0       -1.530611   -0.228934    0.907476
 ---------------------------------------------------------------------

 SCF Done:  E(RB2PLYPD3) =  -132.522763522     A.U. after   11 cycles
 E2(B2PLYPD3) =    -0.1790651737D+00 E(B2PLYPD3) =    -0.13270182869590D+03

 The electronic state is 1-A.
 Alpha  occ. eigenvalues --  -14.83918 -10.65908 -10.65179  -1.04571  -0.90767
 Alpha  occ. eigenvalues --   -0.60785  -0.57013  -0.53134  -0.44792  -0.39611
 Alpha  occ. eigenvalues --   -0.39203
 Alpha virt. eigenvalues --    0.03879   0.08086   0.09301   0.10212   0.11196
 Alpha virt. eigenvalues --    0.11739   0.15638   0.16262   0.16972   0.19977
 Alpha virt. eigenvalues --    0.20162   0.25504   0.33071   0.34679   0.36372

 Mulliken charges:
               1
     1  C   -0.062176
     2  C   -0.001379
     3  N   -0.202368
     4  H    0.079466
     5  H    0.094220
     6  H    0.092237
 Sum of Mulliken charges =   0.00000

 Dipole moment (field-independent basis, Debye):
    X=             -4.1274    Y=              0.0306    Z=              0.0165  Tot=              4.1275
 Quadrupole moment (field-independent basis, Debye-Ang):
   XX=            -20.7020   YY=            -17.6589   ZZ=            -17.6987
   XY=              0.2053   XZ=              0.0825   YZ=             -0.1191

 Normal termination of Gaussian 09 at Wed Aug 26 10:40:51 2020.
