 Gaussian 09, Revision D.01,
 Gaussian 09:  ES64L-G09RevD.01 24-Apr-2013

 --------------------
 #p B2PLYPD3/Def2QZVP
 --------------------

 ------------
 cyanomethane
 ------------
 Symbolic Z-matrix:
 Charge =  0 Multiplicity = 1

                         Standard orientation:
 ---------------------------------------------------------------------
 Center     Atomic      Atomic             Coordinates (Angstroms)
 Number     Number       Type             X           Y           Z
 ---------------------------------------------------------------------
      1          6           0        1.133436    0.015604   -0.003170
      2          6           0       -0.253937   -0.057763    0.038292
      3          7           0       -1.437322    0.035510   -0.015943
      4          1           0        1.485955   -0.681223   -0.752669
      5          1           0        1.613942   -0.292663    0.892683
      6          1           0        1.684362    0.978270   -0.239146
 ---------------------------------------------------------------------

 SCF Done:  E(RB2PLYPD3) =  -132.519761217     A.U. after   13 cycles
 E2(B2PLYPD3) =    -0.1840984651D+00 E(B2PLYPD3) =    -0.13270385968193D+03

 The electronic state is 1-A.
 Alpha  occ. eigenvalues --  -14.85319 -10.67189 -10.66523  -1.03187  -0.90363
 Alpha  occ. eigenvalues --   -0.62632  -0.54127  -0.52632  -0.45260  -0.38079
 Alpha  occ. eigenvalues --   -0.37964
 Alpha virt. eigenvalues --    0.03324   0.05996   0.07198   0.09768   0.11406
 Alpha virt. eigenvalues --    0.11780   0.15682   0.16049   0.17702   0.20210
 Alpha virt. eigenvalues --    0.20682   0.26794   0.33242   0.33975   0.34631

 Mulliken charges:
               1
     1  C   -0.056024
     2  C    0.013144
     3  N   -0.219185
     4  H    0.087993
     5  H    0.085722
     6  H    0.088351
 Sum of Mulliken charges =   0.00000

 Dipole moment (field-independent basis, Debye):
    X=              4.1867    Y=             -0.0802    Z=              0.0195  Tot=              4.1875
 Quadrupole moment (field-independent basis, Debye-Ang):
   XX=            -20.4690   YY=            -17.9617   ZZ=            -18.0026
   XY=              0.2152   XZ=             -0.0165   YZ=              0.0399

 Normal termination of Gaussian 09 at Wed Aug 26 20:42:02 2020.
