 Gaussian 09, Revision D.01,
 Gaussian 09:  ES64L-G09RevD.01 24-Apr-2013

 --------------------
 #p B2PLYPD3/Def2QZVP
 --------------------

 ------------
 cyanomethane
 ------------
 Symbolic Z-matrix:
 Charge =  0 Multiplicity = 1

                         Standard orientation:
 ---------------------------------------------------------------------
 Center     Atomic      Atomic             Coordinates (Angstroms)
 Number     Number       Type             X           Y           Z
 ---------------------------------------------------------------------
      1          6           0        1.178290    0.011674    0.014645
      2          6           0       -0.294844   -0.004717   -0.029281
      3          7           0       -1.434225    0.001412    0.019868
      4          1           0        1.654981   -0.382435    0.943495
      5          1           0        1.568953    1.019846   -0.191147
      6          1           0        1.514962   -0.689038   -0.803607
 ---------------------------------------------------------------------

 SCF Done:  E(RB2PLYPD3) =  -132.532039582     A.U. after   12 cycles
 E2(B2PLYPD3) =    -0.1797692455D+00 E(B2PLYPD3) =    -0.13271180882698D+03

 The electronic state is 1-A.
 Alpha  occ. eigenvalues --  -14.83920 -10.67994 -10.66046  -1.04724  -0.88247
 Alpha  occ. eigenvalues --   -0.59565  -0.53573  -0.52259  -0.44823  -0.39587
 Alpha  occ. eigenvalues --   -0.39283
 Alpha virt. eigenvalues --    0.03588   0.07504   0.08097   0.10162   0.11518
 Alpha virt. eigenvalues --    0.11767   0.15344   0.15801   0.17494   0.19974
 Alpha virt. eigenvalues --    0.20103   0.25189   0.32517   0.33619   0.34848

 Mulliken charges:
               1
     1  C   -0.091371
     2  C    0.000051
     3  N   -0.197025
     4  H    0.096384
     5  H    0.099498
     6  H    0.092463
 Sum of Mulliken charges =   0.00000

 Dipole moment (field-independent basis, Debye):
    X=              4.1042    Y=             -0.0170    Z=             -0.0400  Tot=              4.1044
 Quadrupole moment (field-independent basis, Debye-Ang):
   XX=            -20.9217   YY=            -17.7098   ZZ=            -17.8879
   XY=             -0.0274   XZ=              0.1928   YZ=             -0.0312

 Normal termination of Gaussian 09 at Wed Aug 26 15:38:22 2020.
