 Gaussian 09, Revision D.01,
 Gaussian 09:  ES64L-G09RevD.01 24-Apr-2013

 --------------------
 #p B2PLYPD3/Def2QZVP
 --------------------

 ------------
 cyanomethane
 ------------
 Symbolic Z-matrix:
 Charge =  0 Multiplicity = 1

                         Standard orientation:
 ---------------------------------------------------------------------
 Center     Atomic      Atomic             Coordinates (Angstroms)
 Number     Number       Type             X           Y           Z
 ---------------------------------------------------------------------
      1          6           0       -1.170874   -0.000982   -0.022286
      2          6           0        0.264647    0.038745    0.047471
      3          7           0        1.454878   -0.019451   -0.023584
      4          1           0       -1.595777    1.014263   -0.346663
      5          1           0       -1.562521   -0.252699    1.075430
      6          1           0       -1.588481   -0.851983   -0.714790
 ---------------------------------------------------------------------

 SCF Done:  E(RB2PLYPD3) =  -132.514665175     A.U. after   13 cycles
 E2(B2PLYPD3) =    -0.1854014014D+00 E(B2PLYPD3) =    -0.13270006657667D+03

 The electronic state is 1-A.
 Alpha  occ. eigenvalues --  -14.85430 -10.69441 -10.67499  -1.02717  -0.88023
 Alpha  occ. eigenvalues --   -0.59477  -0.52829  -0.51580  -0.45075  -0.38057
 Alpha  occ. eigenvalues --   -0.37761
 Alpha virt. eigenvalues --    0.03059   0.05644   0.06295   0.09908   0.11141
 Alpha virt. eigenvalues --    0.11502   0.15310   0.15519   0.16788   0.20209
 Alpha virt. eigenvalues --    0.20282   0.25850   0.31451   0.32676   0.33653

 Mulliken charges:
               1
     1  C   -0.106954
     2  C    0.012892
     3  N   -0.218847
     4  H    0.107434
     5  H    0.098690
     6  H    0.106785
 Sum of Mulliken charges =   0.00000

 Dipole moment (field-independent basis, Debye):
    X=             -4.1304    Y=              0.0132    Z=              0.0245  Tot=              4.1305
 Quadrupole moment (field-independent basis, Debye-Ang):
   XX=            -21.2106   YY=            -17.8896   ZZ=            -18.0374
   XY=              0.1078   XZ=              0.1368   YZ=             -0.0162

 Normal termination of Gaussian 09 at Wed Aug 26 20:17:20 2020.
