 Gaussian 09, Revision D.01,
 Gaussian 09:  ES64L-G09RevD.01 24-Apr-2013

 --------------------
 #p B2PLYPD3/Def2QZVP
 --------------------

 ------------
 cyanomethane
 ------------
 Symbolic Z-matrix:
 Charge =  0 Multiplicity = 1

                         Standard orientation:
 ---------------------------------------------------------------------
 Center     Atomic      Atomic             Coordinates (Angstroms)
 Number     Number       Type             X           Y           Z
 ---------------------------------------------------------------------
      1          6           0        1.169910    0.004289   -0.004669
      2          6           0       -0.275991   -0.009724   -0.013505
      3          7           0       -1.430440    0.003698    0.006327
      4          1           0        1.538915    1.011858   -0.079728
      5          1           0        1.572099   -0.593054   -0.770149
      6          1           0        1.538549   -0.412077    0.914631
 ---------------------------------------------------------------------

 SCF Done:  E(RB2PLYPD3) =  -132.534701188     A.U. after   11 cycles
 E2(B2PLYPD3) =    -0.1802115191D+00 E(B2PLYPD3) =    -0.13271491270740D+03

 The electronic state is 1-A.
 Alpha  occ. eigenvalues --  -14.84197 -10.66301 -10.66209  -1.04152  -0.89909
 Alpha  occ. eigenvalues --   -0.60466  -0.54794  -0.53877  -0.44826  -0.39148
 Alpha  occ. eigenvalues --   -0.38993
 Alpha virt. eigenvalues --    0.03865   0.07984   0.08193   0.10176   0.11364
 Alpha virt. eigenvalues --    0.11584   0.15555   0.16293   0.16648   0.20068
 Alpha virt. eigenvalues --    0.20140   0.25571   0.33037   0.34703   0.35268

 Mulliken charges:
               1
     1  C   -0.070079
     2  C   -0.000528
     3  N   -0.206951
     4  H    0.094742
     5  H    0.092665
     6  H    0.090150
 Sum of Mulliken charges =   0.00000

 Dipole moment (field-independent basis, Debye):
    X=              4.1384    Y=             -0.0205    Z=              0.0031  Tot=              4.1385
 Quadrupole moment (field-independent basis, Debye-Ang):
   XX=            -20.8495   YY=            -17.6538   ZZ=            -17.8265
   XY=             -0.0345   XZ=              0.0447   YZ=              0.0205

 Normal termination of Gaussian 09 at Wed Aug 26 15:02:35 2020.
