 Gaussian 09, Revision D.01,
 Gaussian 09:  ES64L-G09RevD.01 24-Apr-2013

 --------------------
 #p B2PLYPD3/Def2QZVP
 --------------------

 ------------
 cyanomethane
 ------------
 Symbolic Z-matrix:
 Charge =  0 Multiplicity = 1

                         Standard orientation:
 ---------------------------------------------------------------------
 Center     Atomic      Atomic             Coordinates (Angstroms)
 Number     Number       Type             X           Y           Z
 ---------------------------------------------------------------------
      1          6           0        1.183576   -0.007443    0.004493
      2          6           0       -0.275152    0.025948   -0.004046
      3          7           0       -1.437013   -0.012223    0.000891
      4          1           0        1.547359    0.937903   -0.440711
      5          1           0        1.535852   -0.862646   -0.600771
      6          1           0        1.525331   -0.100721    1.032569
 ---------------------------------------------------------------------

 SCF Done:  E(RB2PLYPD3) =  -132.534082826     A.U. after   11 cycles
 E2(B2PLYPD3) =    -0.1812819309D+00 E(B2PLYPD3) =    -0.13271536475671D+03

 The electronic state is 1-A.
 Alpha  occ. eigenvalues --  -14.84349 -10.67517 -10.66425  -1.03752  -0.89054
 Alpha  occ. eigenvalues --   -0.59176  -0.54175  -0.53699  -0.44738  -0.38842
 Alpha  occ. eigenvalues --   -0.38773
 Alpha virt. eigenvalues --    0.03678   0.07637   0.07853   0.10149   0.11327
 Alpha virt. eigenvalues --    0.11398   0.15298   0.15889   0.16298   0.20114
 Alpha virt. eigenvalues --    0.20141   0.25322   0.32515   0.34211   0.34558

 Mulliken charges:
               1
     1  C   -0.094369
     2  C   -0.000652
     3  N   -0.210257
     4  H    0.099980
     5  H    0.102025
     6  H    0.103273
 Sum of Mulliken charges =   0.00000

 Dipole moment (field-independent basis, Debye):
    X=              4.1260    Y=              0.0152    Z=              0.0005  Tot=              4.1260
 Quadrupole moment (field-independent basis, Debye-Ang):
   XX=            -21.1880   YY=            -17.7544   ZZ=            -17.7343
   XY=             -0.0573   XZ=             -0.0063   YZ=              0.0018

 Normal termination of Gaussian 09 at Thu Aug 27 00:15:06 2020.
