 Gaussian 09, Revision D.01,
 Gaussian 09:  ES64L-G09RevD.01 24-Apr-2013

 --------------------
 #p B2PLYPD3/Def2QZVP
 --------------------

 ------------
 cyanomethane
 ------------
 Symbolic Z-matrix:
 Charge =  0 Multiplicity = 1

                         Standard orientation:
 ---------------------------------------------------------------------
 Center     Atomic      Atomic             Coordinates (Angstroms)
 Number     Number       Type             X           Y           Z
 ---------------------------------------------------------------------
      1          6           0       -1.171565    0.001697    0.003117
      2          6           0        0.278562    0.019450   -0.001120
      3          7           0        1.441092   -0.017815    0.001645
      4          1           0       -1.474489    0.989024   -0.291593
      5          1           0       -1.619356   -0.240634    0.960751
      6          1           0       -1.635782   -0.750568   -0.692657
 ---------------------------------------------------------------------

 SCF Done:  E(RB2PLYPD3) =  -132.531509166     A.U. after   12 cycles
 E2(B2PLYPD3) =    -0.1814375087D+00 E(B2PLYPD3) =    -0.13271294667452D+03

 The electronic state is 1-A.
 Alpha  occ. eigenvalues --  -14.84556 -10.67203 -10.66635  -1.03874  -0.89231
 Alpha  occ. eigenvalues --   -0.60545  -0.54369  -0.52541  -0.44951  -0.38918
 Alpha  occ. eigenvalues --   -0.38800
 Alpha virt. eigenvalues --    0.03670   0.07060   0.07964   0.10100   0.11305
 Alpha virt. eigenvalues --    0.11623   0.15371   0.16149   0.17081   0.20043
 Alpha virt. eigenvalues --    0.20251   0.25520   0.32609   0.34332   0.34798

 Mulliken charges:
               1
     1  C   -0.075636
     2  C    0.003498
     3  N   -0.209364
     4  H    0.097833
     5  H    0.092992
     6  H    0.090677
 Sum of Mulliken charges =   0.00000

 Dipole moment (field-independent basis, Debye):
    X=             -4.1472    Y=              0.0269    Z=              0.0091  Tot=              4.1473
 Quadrupole moment (field-independent basis, Debye-Ang):
   XX=            -20.8095   YY=            -17.7505   ZZ=            -17.9553
   XY=              0.2278   XZ=             -0.0590   YZ=             -0.0482

 Normal termination of Gaussian 09 at Wed Aug 26 13:59:32 2020.
