 Gaussian 09, Revision D.01,
 Gaussian 09:  ES64L-G09RevD.01 24-Apr-2013

 --------------------
 #p B2PLYPD3/Def2QZVP
 --------------------

 ------------
 cyanomethane
 ------------
 Symbolic Z-matrix:
 Charge =  0 Multiplicity = 1

                         Standard orientation:
 ---------------------------------------------------------------------
 Center     Atomic      Atomic             Coordinates (Angstroms)
 Number     Number       Type             X           Y           Z
 ---------------------------------------------------------------------
      1          6           0       -1.179696    0.013430    0.000213
      2          6           0        0.296986    0.018199   -0.000828
      3          7           0        1.442772   -0.001880    0.000382
      4          1           0       -1.560414   -0.374598    0.919214
      5          1           0       -1.513921   -0.747498   -0.716222
      6          1           0       -1.728810    0.945481   -0.201973
 ---------------------------------------------------------------------

 SCF Done:  E(RB2PLYPD3) =  -132.532013460     A.U. after   12 cycles
 E2(B2PLYPD3) =    -0.1799533224D+00 E(B2PLYPD3) =    -0.13271196678221D+03

 The electronic state is 1-A.
 Alpha  occ. eigenvalues --  -14.84164 -10.67223 -10.66372  -1.04556  -0.88819
 Alpha  occ. eigenvalues --   -0.60493  -0.53538  -0.52716  -0.44932  -0.39596
 Alpha  occ. eigenvalues --   -0.39285
 Alpha virt. eigenvalues --    0.03717   0.07674   0.08197   0.10242   0.11374
 Alpha virt. eigenvalues --    0.11748   0.15325   0.16074   0.17803   0.20074
 Alpha virt. eigenvalues --    0.20135   0.24966   0.32442   0.34283   0.35274

 Mulliken charges:
               1
     1  C   -0.071712
     2  C    0.003865
     3  N   -0.200797
     4  H    0.087913
     5  H    0.087213
     6  H    0.093519
 Sum of Mulliken charges =   0.00000

 Dipole moment (field-independent basis, Debye):
    X=             -4.1516    Y=             -0.0504    Z=              0.0187  Tot=              4.1519
 Quadrupole moment (field-independent basis, Debye-Ang):
   XX=            -20.6124   YY=            -17.7237   ZZ=            -18.0143
   XY=             -0.0102   XZ=             -0.0473   YZ=             -0.0222

 Normal termination of Gaussian 09 at Wed Aug 26 22:37:06 2020.
