 Gaussian 09, Revision D.01,
 Gaussian 09:  ES64L-G09RevD.01 24-Apr-2013

 --------------------
 #p B2PLYPD3/Def2QZVP
 --------------------

 ------------
 cyanomethane
 ------------
 Symbolic Z-matrix:
 Charge =  0 Multiplicity = 1

                         Standard orientation:
 ---------------------------------------------------------------------
 Center     Atomic      Atomic             Coordinates (Angstroms)
 Number     Number       Type             X           Y           Z
 ---------------------------------------------------------------------
      1          6           0       -1.138875    0.004365   -0.018671
      2          6           0        0.282751    0.050742   -0.001034
      3          7           0        1.418369   -0.021309    0.007413
      4          1           0       -1.638605   -0.296760    0.940810
      5          1           0       -1.485964   -0.765371   -0.638633
      6          1           0       -1.667271    0.880650   -0.235834
 ---------------------------------------------------------------------

 SCF Done:  E(RB2PLYPD3) =  -132.527656853     A.U. after   11 cycles
 E2(B2PLYPD3) =    -0.1792492581D+00 E(B2PLYPD3) =    -0.13270690611105D+03

 The electronic state is 1-A.
 Alpha  occ. eigenvalues --  -14.83930 -10.66055 -10.65882  -1.05046  -0.90047
 Alpha  occ. eigenvalues --   -0.62289  -0.55007  -0.51908  -0.45022  -0.39696
 Alpha  occ. eigenvalues --   -0.39140
 Alpha virt. eigenvalues --    0.03734   0.07504   0.08273   0.10158   0.11580
 Alpha virt. eigenvalues --    0.12194   0.15784   0.16971   0.17505   0.19925
 Alpha virt. eigenvalues --    0.20176   0.26099   0.33183   0.34371   0.35821

 Mulliken charges:
               1
     1  C   -0.052464
     2  C    0.007629
     3  N   -0.197686
     4  H    0.071456
     5  H    0.086356
     6  H    0.084710
 Sum of Mulliken charges =   0.00000

 Dipole moment (field-independent basis, Debye):
    X=             -4.1236    Y=              0.0013    Z=             -0.0030  Tot=              4.1236
 Quadrupole moment (field-independent basis, Debye-Ang):
   XX=            -20.3669   YY=            -17.6761   ZZ=            -17.9965
   XY=              0.1096   XZ=             -0.1518   YZ=              0.0531

 Normal termination of Gaussian 09 at Wed Aug 26 19:17:28 2020.
