 Gaussian 09, Revision D.01,
 Gaussian 09:  ES64L-G09RevD.01 24-Apr-2013

 --------------------
 #p B2PLYPD3/Def2QZVP
 --------------------

 ------------
 cyanomethane
 ------------
 Symbolic Z-matrix:
 Charge =  0 Multiplicity = 1

                         Standard orientation:
 ---------------------------------------------------------------------
 Center     Atomic      Atomic             Coordinates (Angstroms)
 Number     Number       Type             X           Y           Z
 ---------------------------------------------------------------------
      1          6           0        1.207376   -0.021072    0.011968
      2          6           0       -0.294901   -0.003040   -0.027853
      3          7           0       -1.439953    0.010304    0.012216
      4          1           0        1.518250    0.049214    0.992987
      5          1           0        1.619887    0.928231   -0.511930
      6          1           0        1.466687   -0.904906   -0.471257
 ---------------------------------------------------------------------

 SCF Done:  E(RB2PLYPD3) =  -132.527062444     A.U. after   11 cycles
 E2(B2PLYPD3) =    -0.1796850100D+00 E(B2PLYPD3) =    -0.13270674745418D+03

 The electronic state is 1-A.
 Alpha  occ. eigenvalues --  -14.83893 -10.67218 -10.66040  -1.04316  -0.88979
 Alpha  occ. eigenvalues --   -0.58639  -0.55969  -0.52496  -0.44580  -0.39574
 Alpha  occ. eigenvalues --   -0.39241
 Alpha virt. eigenvalues --    0.03689   0.07891   0.09089   0.10252   0.11033
 Alpha virt. eigenvalues --    0.11560   0.14984   0.16012   0.16326   0.19964
 Alpha virt. eigenvalues --    0.20100   0.24488   0.31851   0.33961   0.35734

 Mulliken charges:
               1
     1  C   -0.093736
     2  C   -0.007600
     3  N   -0.201785
     4  H    0.103097
     5  H    0.091808
     6  H    0.108216
 Sum of Mulliken charges =   0.00000

 Dipole moment (field-independent basis, Debye):
    X=              4.1242    Y=             -0.0177    Z=              0.0157  Tot=              4.1243
 Quadrupole moment (field-independent basis, Debye-Ang):
   XX=            -21.1472   YY=            -17.5847   ZZ=            -17.7998
   XY=              0.1779   XZ=              0.1266   YZ=              0.1130

 Normal termination of Gaussian 09 at Wed Aug 26 23:53:25 2020.
