 Gaussian 09, Revision D.01,
 Gaussian 09:  ES64L-G09RevD.01 24-Apr-2013

 --------------------
 #p B2PLYPD3/Def2QZVP
 --------------------

 ------------
 cyanomethane
 ------------
 Symbolic Z-matrix:
 Charge =  0 Multiplicity = 1

                         Standard orientation:
 ---------------------------------------------------------------------
 Center     Atomic      Atomic             Coordinates (Angstroms)
 Number     Number       Type             X           Y           Z
 ---------------------------------------------------------------------
      1          6           0        1.146117    0.037206    0.014571
      2          6           0       -0.265312   -0.023184   -0.042008
      3          7           0       -1.430682    0.001891    0.012376
      4          1           0        1.526155    0.983915   -0.201718
      5          1           0        1.709898   -0.741188   -0.708927
      6          1           0        1.493889   -0.340099    0.988637
 ---------------------------------------------------------------------

 SCF Done:  E(RB2PLYPD3) =  -132.522654141     A.U. after   12 cycles
 E2(B2PLYPD3) =    -0.1821848606D+00 E(B2PLYPD3) =    -0.13270483900146D+03

 The electronic state is 1-A.
 Alpha  occ. eigenvalues --  -14.84653 -10.67425 -10.66582  -1.03863  -0.89567
 Alpha  occ. eigenvalues --   -0.61020  -0.55429  -0.51155  -0.45042  -0.38880
 Alpha  occ. eigenvalues --   -0.38159
 Alpha virt. eigenvalues --    0.03530   0.06129   0.07588   0.10042   0.11297
 Alpha virt. eigenvalues --    0.12046   0.15548   0.16219   0.17091   0.20061
 Alpha virt. eigenvalues --    0.20221   0.26251   0.31434   0.34031   0.35386

 Mulliken charges:
               1
     1  C   -0.076904
     2  C    0.007184
     3  N   -0.211040
     4  H    0.104859
     5  H    0.079610
     6  H    0.096291
 Sum of Mulliken charges =   0.00000

 Dipole moment (field-independent basis, Debye):
    X=              4.1223    Y=             -0.0050    Z=              0.0281  Tot=              4.1224
 Quadrupole moment (field-independent basis, Debye-Ang):
   XX=            -20.8360   YY=            -17.7243   ZZ=            -18.0247
   XY=             -0.1127   XZ=              0.0334   YZ=             -0.1510

 Normal termination of Gaussian 09 at Wed Aug 26 21:34:42 2020.
