 Gaussian 09, Revision D.01,
 Gaussian 09:  ES64L-G09RevD.01 24-Apr-2013

 --------------------
 #p B2PLYPD3/Def2QZVP
 --------------------

 ------------
 cyanomethane
 ------------
 Symbolic Z-matrix:
 Charge =  0 Multiplicity = 1

                         Standard orientation:
 ---------------------------------------------------------------------
 Center     Atomic      Atomic             Coordinates (Angstroms)
 Number     Number       Type             X           Y           Z
 ---------------------------------------------------------------------
      1          6           0       -1.187631    0.032306    0.009583
      2          6           0        0.265474   -0.083303   -0.000828
      3          7           0        1.447989    0.043224   -0.005195
      4          1           0       -1.455762   -0.218939    0.897522
      5          1           0       -1.547863   -0.744114   -0.630693
      6          1           0       -1.599356    0.966468   -0.282994
 ---------------------------------------------------------------------

 SCF Done:  E(RB2PLYPD3) =  -132.513178165     A.U. after   13 cycles
 E2(B2PLYPD3) =    -0.1832332813D+00 E(B2PLYPD3) =    -0.13269641144623D+03

 The electronic state is 1-A.
 Alpha  occ. eigenvalues --  -14.85224 -10.67253 -10.65366  -1.02871  -0.90907
 Alpha  occ. eigenvalues --   -0.60596  -0.56356  -0.54279  -0.44954  -0.38495
 Alpha  occ. eigenvalues --   -0.38235
 Alpha virt. eigenvalues --    0.03579   0.07037   0.08500   0.09883   0.11030
 Alpha virt. eigenvalues --    0.11227   0.15136   0.15585   0.17316   0.20276
 Alpha virt. eigenvalues --    0.20331   0.25892   0.32678   0.34836   0.35605

 Mulliken charges:
               1
     1  C   -0.073919
     2  C    0.007886
     3  N   -0.221963
     4  H    0.102792
     5  H    0.087072
     6  H    0.098131
 Sum of Mulliken charges =   0.00000

 Dipole moment (field-independent basis, Debye):
    X=             -4.1651    Y=             -0.0811    Z=              0.0336  Tot=              4.1661
 Quadrupole moment (field-independent basis, Debye-Ang):
   XX=            -20.8199   YY=            -17.6646   ZZ=            -17.9340
   XY=             -0.1760   XZ=              0.0395   YZ=             -0.0603

 Normal termination of Gaussian 09 at Wed Aug 26 19:42:49 2020.
