 Gaussian 09, Revision D.01,
 Gaussian 09:  ES64L-G09RevD.01 24-Apr-2013

 --------------------
 #p B2PLYPD3/Def2QZVP
 --------------------

 ------------
 cyanomethane
 ------------
 Symbolic Z-matrix:
 Charge =  0 Multiplicity = 1

                         Standard orientation:
 ---------------------------------------------------------------------
 Center     Atomic      Atomic             Coordinates (Angstroms)
 Number     Number       Type             X           Y           Z
 ---------------------------------------------------------------------
      1          6           0        1.183476    0.004101   -0.001691
      2          6           0       -0.285691    0.017755   -0.006883
      3          7           0       -1.432521   -0.006020    0.002585
      4          1           0        1.536296   -0.540300   -0.873452
      5          1           0        1.506870   -0.549296    0.889339
      6          1           0        1.597773    1.000599    0.017458
 ---------------------------------------------------------------------

 SCF Done:  E(RB2PLYPD3) =  -132.535906066     A.U. after   12 cycles
 E2(B2PLYPD3) =    -0.1797999946D+00 E(B2PLYPD3) =    -0.13271570606057D+03

 The electronic state is 1-A.
 Alpha  occ. eigenvalues --  -14.83959 -10.67183 -10.66052  -1.04368  -0.89038
 Alpha  occ. eigenvalues --   -0.59372  -0.54275  -0.53588  -0.44715  -0.39361
 Alpha  occ. eigenvalues --   -0.39189
 Alpha virt. eigenvalues --    0.03762   0.08130   0.08192   0.10229   0.11372
 Alpha virt. eigenvalues --    0.11605   0.15319   0.16090   0.16598   0.20019
 Alpha virt. eigenvalues --    0.20088   0.25130   0.32700   0.34303   0.35047

 Mulliken charges:
               1
     1  C   -0.087519
     2  C   -0.003719
     3  N   -0.202359
     4  H    0.097682
     5  H    0.097000
     6  H    0.098914
 Sum of Mulliken charges =   0.00000

 Dipole moment (field-independent basis, Debye):
    X=              4.1205    Y=             -0.0059    Z=             -0.0002  Tot=              4.1205
 Quadrupole moment (field-independent basis, Debye-Ang):
   XX=            -21.0304   YY=            -17.6751   ZZ=            -17.7702
   XY=             -0.0050   XZ=              0.0029   YZ=              0.0115

 Normal termination of Gaussian 09 at Thu Aug 27 00:05:28 2020.
