 Gaussian 09, Revision D.01,
 Gaussian 09:  ES64L-G09RevD.01 24-Apr-2013

 --------------------
 #p B2PLYPD3/Def2QZVP
 --------------------

 ------------
 cyanomethane
 ------------
 Symbolic Z-matrix:
 Charge =  0 Multiplicity = 1

                         Standard orientation:
 ---------------------------------------------------------------------
 Center     Atomic      Atomic             Coordinates (Angstroms)
 Number     Number       Type             X           Y           Z
 ---------------------------------------------------------------------
      1          6           0        1.153827    0.009514   -0.031337
      2          6           0       -0.286341   -0.035457    0.031413
      3          7           0       -1.427030    0.009957   -0.008167
      4          1           0        1.662152    0.032539    0.998796
      5          1           0        1.469323    0.924798   -0.470093
      6          1           0        1.652814   -0.871382   -0.471988
 ---------------------------------------------------------------------

 SCF Done:  E(RB2PLYPD3) =  -132.529763908     A.U. after   11 cycles
 E2(B2PLYPD3) =    -0.1799220899D+00 E(B2PLYPD3) =    -0.13270968599756D+03

 The electronic state is 1-A.
 Alpha  occ. eigenvalues --  -14.84038 -10.67332 -10.66056  -1.04796  -0.89005
 Alpha  occ. eigenvalues --   -0.60792  -0.54732  -0.51325  -0.44968  -0.39594
 Alpha  occ. eigenvalues --   -0.39013
 Alpha virt. eigenvalues --    0.03661   0.07157   0.07894   0.10181   0.11524
 Alpha virt. eigenvalues --    0.12090   0.15448   0.16460   0.17496   0.19948
 Alpha virt. eigenvalues --    0.20106   0.25859   0.32433   0.33854   0.35575

 Mulliken charges:
               1
     1  C   -0.072362
     2  C    0.003987
     3  N   -0.198697
     4  H    0.076523
     5  H    0.098225
     6  H    0.092325
 Sum of Mulliken charges =   0.00000

 Dipole moment (field-independent basis, Debye):
    X=              4.1108    Y=             -0.0025    Z=              0.0361  Tot=              4.1110
 Quadrupole moment (field-independent basis, Debye-Ang):
   XX=            -20.6521   YY=            -17.6224   ZZ=            -18.0800
   XY=             -0.0472   XZ=              0.0984   YZ=             -0.0341

 Normal termination of Gaussian 09 at Wed Aug 26 22:28:39 2020.
