 Gaussian 09, Revision D.01,
 Gaussian 09:  ES64L-G09RevD.01 24-Apr-2013

 --------------------
 #p B2PLYPD3/Def2QZVP
 --------------------

 ------------
 cyanomethane
 ------------
 Symbolic Z-matrix:
 Charge =  0 Multiplicity = 1

                         Standard orientation:
 ---------------------------------------------------------------------
 Center     Atomic      Atomic             Coordinates (Angstroms)
 Number     Number       Type             X           Y           Z
 ---------------------------------------------------------------------
      1          6           0       -1.176724    0.002022   -0.010167
      2          6           0        0.270346   -0.003658    0.023930
      3          7           0        1.434909    0.002572   -0.010998
      4          1           0       -1.540243   -0.081747    0.996604
      5          1           0       -1.522385   -0.853933   -0.567996
      6          1           0       -1.543469    0.927491   -0.434199
 ---------------------------------------------------------------------

 SCF Done:  E(RB2PLYPD3) =  -132.534328555     A.U. after   11 cycles
 E2(B2PLYPD3) =    -0.1812342124D+00 E(B2PLYPD3) =    -0.13271556276698D+03

 The electronic state is 1-A.
 Alpha  occ. eigenvalues --  -14.84423 -10.66729 -10.66459  -1.03695  -0.89729
 Alpha  occ. eigenvalues --   -0.59848  -0.54632  -0.54149  -0.44787  -0.38809
 Alpha  occ. eigenvalues --   -0.38709
 Alpha virt. eigenvalues --    0.03796   0.07757   0.07963   0.10141   0.11314
 Alpha virt. eigenvalues --    0.11390   0.15435   0.15879   0.16522   0.20145
 Alpha virt. eigenvalues --    0.20163   0.25546   0.32813   0.34551   0.34920

 Mulliken charges:
               1
     1  C   -0.081664
     2  C   -0.000232
     3  N   -0.212172
     4  H    0.095366
     5  H    0.099292
     6  H    0.099410
 Sum of Mulliken charges =   0.00000

 Dipole moment (field-independent basis, Debye):
    X=             -4.1409    Y=             -0.0080    Z=              0.0294  Tot=              4.1410
 Quadrupole moment (field-independent basis, Debye-Ang):
   XX=            -21.0456   YY=            -17.6688   ZZ=            -17.8147
   XY=             -0.0179   XZ=              0.0130   YZ=              0.0034

 Normal termination of Gaussian 09 at Wed Aug 26 23:59:36 2020.
