 Gaussian 09, Revision D.01,
 Gaussian 09:  ES64L-G09RevD.01 24-Apr-2013

 --------------------
 #p B2PLYPD3/Def2QZVP
 --------------------

 ------------
 cyanomethane
 ------------
 Symbolic Z-matrix:
 Charge =  0 Multiplicity = 1

                         Standard orientation:
 ---------------------------------------------------------------------
 Center     Atomic      Atomic             Coordinates (Angstroms)
 Number     Number       Type             X           Y           Z
 ---------------------------------------------------------------------
      1          6           0       -1.183905    0.000846    0.020050
      2          6           0        0.268023   -0.023247    0.004830
      3          7           0        1.434956    0.008152   -0.008220
      4          1           0       -1.475354   -0.150255    0.999518
      5          1           0       -1.585725   -0.806670   -0.695231
      6          1           0       -1.488323    1.034267   -0.396028
 ---------------------------------------------------------------------

 SCF Done:  E(RB2PLYPD3) =  -132.525950018     A.U. after   12 cycles
 E2(B2PLYPD3) =    -0.1819452691D+00 E(B2PLYPD3) =    -0.13270789528687D+03

 The electronic state is 1-A.
 Alpha  occ. eigenvalues --  -14.84395 -10.67865 -10.66471  -1.03535  -0.89163
 Alpha  occ. eigenvalues --   -0.58886  -0.55248  -0.52576  -0.44675  -0.38745
 Alpha  occ. eigenvalues --   -0.38378
 Alpha virt. eigenvalues --    0.03499   0.06953   0.08178   0.10134   0.11130
 Alpha virt. eigenvalues --    0.11582   0.15195   0.15755   0.15968   0.20125
 Alpha virt. eigenvalues --    0.20204   0.25355   0.32068   0.32980   0.34832

 Mulliken charges:
               1
     1  C   -0.106303
     2  C    0.001058
     3  N   -0.213537
     4  H    0.112904
     5  H    0.101489
     6  H    0.104390
 Sum of Mulliken charges =   0.00000

 Dipole moment (field-independent basis, Debye):
    X=             -4.1123    Y=             -0.0068    Z=              0.0148  Tot=              4.1123
 Quadrupole moment (field-independent basis, Debye-Ang):
   XX=            -21.3957   YY=            -17.7548   ZZ=            -17.6878
   XY=              0.0205   XZ=              0.1005   YZ=             -0.0339

 Normal termination of Gaussian 09 at Wed Aug 26 14:33:18 2020.
