 Gaussian 09, Revision D.01,
 Gaussian 09:  ES64L-G09RevD.01 24-Apr-2013

 --------------------
 #p B2PLYPD3/Def2QZVP
 --------------------

 ------------
 cyanomethane
 ------------
 Symbolic Z-matrix:
 Charge =  0 Multiplicity = 1

                         Standard orientation:
 ---------------------------------------------------------------------
 Center     Atomic      Atomic             Coordinates (Angstroms)
 Number     Number       Type             X           Y           Z
 ---------------------------------------------------------------------
      1          6           0        1.191491   -0.014040   -0.014583
      2          6           0       -0.295717    0.037014   -0.042601
      3          7           0       -1.440404   -0.022424    0.040091
      4          1           0        1.797135   -0.377509    0.958621
      5          1           0        1.478705    1.084372   -0.135380
      6          1           0        1.432344   -0.687741   -0.760775
 ---------------------------------------------------------------------

 SCF Done:  E(RB2PLYPD3) =  -132.514450730     A.U. after   13 cycles
 E2(B2PLYPD3) =    -0.1810939583D+00 E(B2PLYPD3) =    -0.13269554468862D+03

 The electronic state is 1-A.
 Alpha  occ. eigenvalues --  -14.84187 -10.68457 -10.66324  -1.04370  -0.88197
 Alpha  occ. eigenvalues --   -0.58852  -0.55491  -0.50168  -0.44795  -0.39477
 Alpha  occ. eigenvalues --   -0.38821
 Alpha virt. eigenvalues --    0.03053   0.06326   0.08850   0.10101   0.11130
 Alpha virt. eigenvalues --    0.11779   0.15125   0.15437   0.17484   0.19945
 Alpha virt. eigenvalues --    0.20347   0.25048   0.31443   0.32604   0.35048

 Mulliken charges:
               1
     1  C   -0.107083
     2  C    0.002667
     3  N   -0.200721
     4  H    0.091235
     5  H    0.101934
     6  H    0.111968
 Sum of Mulliken charges =   0.00000

 Dipole moment (field-independent basis, Debye):
    X=              4.0895    Y=              0.0264    Z=             -0.0699  Tot=              4.0902
 Quadrupole moment (field-independent basis, Debye-Ang):
   XX=            -21.0405   YY=            -17.6053   ZZ=            -18.0829
   XY=             -0.2208   XZ=              0.4846   YZ=              0.1738

 Normal termination of Gaussian 09 at Wed Aug 26 23:32:06 2020.
