 Gaussian 09, Revision D.01,
 Gaussian 09:  ES64L-G09RevD.01 24-Apr-2013

 --------------------
 #p B2PLYPD3/Def2QZVP
 --------------------

 ------------
 cyanomethane
 ------------
 Symbolic Z-matrix:
 Charge =  0 Multiplicity = 1

                         Standard orientation:
 ---------------------------------------------------------------------
 Center     Atomic      Atomic             Coordinates (Angstroms)
 Number     Number       Type             X           Y           Z
 ---------------------------------------------------------------------
      1          6           0       -1.149886    0.052275    0.009226
      2          6           0        0.262346    0.050401   -0.027965
      3          7           0        1.428589   -0.044317    0.017584
      4          1           0       -1.404046    1.002502   -0.223034
      5          1           0       -1.654049   -0.449528    1.018844
      6          1           0       -1.616790   -0.858813   -0.806472
 ---------------------------------------------------------------------

 SCF Done:  E(RB2PLYPD3) =  -132.488768962     A.U. after   12 cycles
 E2(B2PLYPD3) =    -0.1840294420D+00 E(B2PLYPD3) =    -0.13267279840367D+03

 The electronic state is 1-A.
 Alpha  occ. eigenvalues --  -14.84741 -10.69261 -10.66611  -1.03704  -0.89095
 Alpha  occ. eigenvalues --   -0.59258  -0.56039  -0.48907  -0.44993  -0.38760
 Alpha  occ. eigenvalues --   -0.37346
 Alpha virt. eigenvalues --    0.02377   0.04112   0.08098   0.09932   0.10828
 Alpha virt. eigenvalues --    0.12538   0.15072   0.16001   0.16857   0.19843
 Alpha virt. eigenvalues --    0.20460   0.25865   0.29519   0.31551   0.34724

 Mulliken charges:
               1
     1  C   -0.111070
     2  C    0.008940
     3  N   -0.210844
     4  H    0.124069
     5  H    0.101063
     6  H    0.087842
 Sum of Mulliken charges =   0.00000

 Dipole moment (field-independent basis, Debye):
    X=             -4.0525    Y=              0.0281    Z=              0.0139  Tot=              4.0526
 Quadrupole moment (field-independent basis, Debye-Ang):
   XX=            -21.3166   YY=            -17.4957   ZZ=            -18.2396
   XY=              0.5441   XZ=             -0.2389   YZ=             -0.1882

 Normal termination of Gaussian 09 at Wed Aug 26 22:58:40 2020.
