 Gaussian 09, Revision D.01,
 Gaussian 09:  ES64L-G09RevD.01 24-Apr-2013

 --------------------
 #p B2PLYPD3/Def2QZVP
 --------------------

 ------------
 cyanomethane
 ------------
 Symbolic Z-matrix:
 Charge =  0 Multiplicity = 1

                         Standard orientation:
 ---------------------------------------------------------------------
 Center     Atomic      Atomic             Coordinates (Angstroms)
 Number     Number       Type             X           Y           Z
 ---------------------------------------------------------------------
      1          6           0       -1.204721   -0.016382   -0.008475
      2          6           0        0.275165    0.024950    0.054347
      3          7           0        1.446029   -0.016501   -0.032325
      4          1           0       -1.449830   -0.046072    0.964239
      5          1           0       -1.610550   -0.826346   -0.556253
      6          1           0       -1.484484    0.936518   -0.456943
 ---------------------------------------------------------------------

 SCF Done:  E(RB2PLYPD3) =  -132.523293636     A.U. after   13 cycles
 E2(B2PLYPD3) =    -0.1820419635D+00 E(B2PLYPD3) =    -0.13270533559971D+03

 The electronic state is 1-A.
 Alpha  occ. eigenvalues --  -14.84700 -10.66815 -10.66280  -1.03244  -0.90053
 Alpha  occ. eigenvalues --   -0.59361  -0.55918  -0.54140  -0.44706  -0.38731
 Alpha  occ. eigenvalues --   -0.38592
 Alpha virt. eigenvalues --    0.03692   0.07479   0.08900   0.09998   0.10921
 Alpha virt. eigenvalues --    0.11218   0.15021   0.15273   0.16950   0.20153
 Alpha virt. eigenvalues --    0.20263   0.25108   0.32519   0.34515   0.35485

 Mulliken charges:
               1
     1  C   -0.088795
     2  C    0.000700
     3  N   -0.216718
     4  H    0.104852
     5  H    0.100900
     6  H    0.099062
 Sum of Mulliken charges =   0.00000

 Dipole moment (field-independent basis, Debye):
    X=             -4.1481    Y=              0.0263    Z=              0.0552  Tot=              4.1485
 Quadrupole moment (field-independent basis, Debye-Ang):
   XX=            -21.1104   YY=            -17.7118   ZZ=            -17.7580
   XY=              0.1588   XZ=              0.2095   YZ=              0.0059

 Normal termination of Gaussian 09 at Wed Aug 26 23:31:05 2020.
