 Gaussian 09, Revision D.01,
 Gaussian 09:  ES64L-G09RevD.01 24-Apr-2013

 --------------------
 #p B2PLYPD3/Def2QZVP
 --------------------

 ------------
 cyanomethane
 ------------
 Symbolic Z-matrix:
 Charge =  0 Multiplicity = 1

                         Standard orientation:
 ---------------------------------------------------------------------
 Center     Atomic      Atomic             Coordinates (Angstroms)
 Number     Number       Type             X           Y           Z
 ---------------------------------------------------------------------
      1          6           0       -1.190859   -0.014134    0.014551
      2          6           0        0.289447    0.045809    0.008132
      3          7           0        1.434925   -0.027511   -0.005039
      4          1           0       -1.595281   -0.896909   -0.559133
      5          1           0       -1.484990    0.908331   -0.544457
      6          1           0       -1.555735   -0.008892    1.002762
 ---------------------------------------------------------------------

 SCF Done:  E(RB2PLYPD3) =  -132.531251421     A.U. after   12 cycles
 E2(B2PLYPD3) =    -0.1801745989D+00 E(B2PLYPD3) =    -0.13271142602024D+03

 The electronic state is 1-A.
 Alpha  occ. eigenvalues --  -14.84006 -10.67670 -10.66117  -1.04324  -0.88625
 Alpha  occ. eigenvalues --   -0.59034  -0.54568  -0.52648  -0.44703  -0.39425
 Alpha  occ. eigenvalues --   -0.39065
 Alpha virt. eigenvalues --    0.03579   0.07623   0.08519   0.10145   0.11264
 Alpha virt. eigenvalues --    0.11580   0.15242   0.15502   0.17065   0.20020
 Alpha virt. eigenvalues --    0.20086   0.25091   0.32501   0.33562   0.35069

 Mulliken charges:
               1
     1  C   -0.096769
     2  C   -0.002075
     3  N   -0.202215
     4  H    0.098750
     5  H    0.097319
     6  H    0.104990
 Sum of Mulliken charges =   0.00000

 Dipole moment (field-independent basis, Debye):
    X=             -4.1039    Y=              0.0491    Z=              0.0019  Tot=              4.1042
 Quadrupole moment (field-independent basis, Debye-Ang):
   XX=            -21.1299   YY=            -17.7898   ZZ=            -17.6747
   XY=              0.2215   XZ=              0.0294   YZ=             -0.0055

 Normal termination of Gaussian 09 at Wed Aug 26 10:33:40 2020.
