 Gaussian 09, Revision D.01,
 Gaussian 09:  ES64L-G09RevD.01 24-Apr-2013

 --------------------
 #p B2PLYPD3/Def2QZVP
 --------------------

 ------------
 cyanomethane
 ------------
 Symbolic Z-matrix:
 Charge =  0 Multiplicity = 1

                         Standard orientation:
 ---------------------------------------------------------------------
 Center     Atomic      Atomic             Coordinates (Angstroms)
 Number     Number       Type             X           Y           Z
 ---------------------------------------------------------------------
      1          6           0        1.186020    0.005967    0.002328
      2          6           0       -0.287861    0.021496    0.003620
      3          7           0       -1.430817   -0.004145   -0.003806
      4          1           0        1.503910   -0.618124   -0.847572
      5          1           0        1.475375   -0.511793    0.901884
      6          1           0        1.647481    0.994149   -0.063358
 ---------------------------------------------------------------------

 SCF Done:  E(RB2PLYPD3) =  -132.534916207     A.U. after   12 cycles
 E2(B2PLYPD3) =    -0.1795430807D+00 E(B2PLYPD3) =    -0.13271445928748D+03

 The electronic state is 1-A.
 Alpha  occ. eigenvalues --  -14.83820 -10.67309 -10.65941  -1.04499  -0.88940
 Alpha  occ. eigenvalues --   -0.59130  -0.54286  -0.53496  -0.44664  -0.39467
 Alpha  occ. eigenvalues --   -0.39242
 Alpha virt. eigenvalues --    0.03749   0.08045   0.08433   0.10260   0.11389
 Alpha virt. eigenvalues --    0.11685   0.15262   0.15787   0.16880   0.19999
 Alpha virt. eigenvalues --    0.20095   0.25036   0.32598   0.34181   0.35133

 Mulliken charges:
               1
     1  C   -0.092614
     2  C   -0.004376
     3  N   -0.200587
     4  H    0.097218
     5  H    0.100005
     6  H    0.100354
 Sum of Mulliken charges =   0.00000

 Dipole moment (field-independent basis, Debye):
    X=              4.1163    Y=             -0.0216    Z=              0.0089  Tot=              4.1164
 Quadrupole moment (field-independent basis, Debye-Ang):
   XX=            -21.0648   YY=            -17.6309   ZZ=            -17.7879
   XY=              0.0445   XZ=             -0.0459   YZ=             -0.0245

 Normal termination of Gaussian 09 at Wed Aug 26 11:23:23 2020.
