 Gaussian 09, Revision D.01,
 Gaussian 09:  ES64L-G09RevD.01 24-Apr-2013

 --------------------
 #p B2PLYPD3/Def2QZVP
 --------------------

 ------------
 cyanomethane
 ------------
 Symbolic Z-matrix:
 Charge =  0 Multiplicity = 1

                         Standard orientation:
 ---------------------------------------------------------------------
 Center     Atomic      Atomic             Coordinates (Angstroms)
 Number     Number       Type             X           Y           Z
 ---------------------------------------------------------------------
      1          6           0        1.167458   -0.002885   -0.016075
      2          6           0       -0.280810    0.004709    0.026947
      3          7           0       -1.424236    0.000152   -0.012540
      4          1           0        1.580056    0.957422   -0.330928
      5          1           0        1.526735   -0.781348   -0.644395
      6          1           0        1.542973   -0.188085    0.997872
 ---------------------------------------------------------------------

 SCF Done:  E(RB2PLYPD3) =  -132.535559591     A.U. after   11 cycles
 E2(B2PLYPD3) =    -0.1795322975D+00 E(B2PLYPD3) =    -0.13271509188815D+03

 The electronic state is 1-A.
 Alpha  occ. eigenvalues --  -14.83893 -10.66797 -10.65901  -1.04565  -0.89438
 Alpha  occ. eigenvalues --   -0.60015  -0.54504  -0.53426  -0.44778  -0.39391
 Alpha  occ. eigenvalues --   -0.39183
 Alpha virt. eigenvalues --    0.03804   0.07985   0.08197   0.10162   0.11543
 Alpha virt. eigenvalues --    0.11708   0.15541   0.16036   0.16947   0.20040
 Alpha virt. eigenvalues --    0.20063   0.25593   0.32984   0.34334   0.35213

 Mulliken charges:
               1
     1  C   -0.080223
     2  C   -0.002131
     3  N   -0.201070
     4  H    0.094625
     5  H    0.098059
     6  H    0.090741
 Sum of Mulliken charges =   0.00000

 Dipole moment (field-independent basis, Debye):
    X=              4.1077    Y=             -0.0068    Z=              0.0301  Tot=              4.1079
 Quadrupole moment (field-independent basis, Debye-Ang):
   XX=            -20.9289   YY=            -17.6671   ZZ=            -17.7650
   XY=              0.0265   XZ=             -0.0440   YZ=              0.0332

 Normal termination of Gaussian 09 at Wed Aug 26 11:17:54 2020.
