 Gaussian 09, Revision D.01,
 Gaussian 09:  ES64L-G09RevD.01 24-Apr-2013

 --------------------
 #p B2PLYPD3/Def2QZVP
 --------------------

 ------------
 cyanomethane
 ------------
 Symbolic Z-matrix:
 Charge =  0 Multiplicity = 1

                         Standard orientation:
 ---------------------------------------------------------------------
 Center     Atomic      Atomic             Coordinates (Angstroms)
 Number     Number       Type             X           Y           Z
 ---------------------------------------------------------------------
      1          6           0        1.164647   -0.011050   -0.007732
      2          6           0       -0.283861    0.006583    0.018614
      3          7           0       -1.426533    0.002825   -0.011978
      4          1           0        1.644073    0.971860   -0.418035
      5          1           0        1.536997   -0.859928   -0.597424
      6          1           0        1.519943   -0.104912    1.034015
 ---------------------------------------------------------------------

 SCF Done:  E(RB2PLYPD3) =  -132.531331295     A.U. after   12 cycles
 E2(B2PLYPD3) =    -0.1800250553D+00 E(B2PLYPD3) =    -0.13271135635010D+03

 The electronic state is 1-A.
 Alpha  occ. eigenvalues --  -14.83926 -10.67982 -10.65954  -1.04640  -0.88605
 Alpha  occ. eigenvalues --   -0.59567  -0.53852  -0.52251  -0.44820  -0.39336
 Alpha  occ. eigenvalues --   -0.39118
 Alpha virt. eigenvalues --    0.03542   0.07161   0.08000   0.10159   0.11652
 Alpha virt. eigenvalues --    0.11853   0.15451   0.15991   0.17033   0.20006
 Alpha virt. eigenvalues --    0.20076   0.25554   0.32380   0.33796   0.34590

 Mulliken charges:
               1
     1  C   -0.093584
     2  C   -0.000432
     3  N   -0.198832
     4  H    0.093385
     5  H    0.102088
     6  H    0.097375
 Sum of Mulliken charges =   0.00000

 Dipole moment (field-independent basis, Debye):
    X=              4.0906    Y=             -0.0198    Z=              0.0410  Tot=              4.0909
 Quadrupole moment (field-independent basis, Debye-Ang):
   XX=            -21.0116   YY=            -17.7305   ZZ=            -17.8083
   XY=              0.0726   XZ=             -0.0668   YZ=              0.0570

 Normal termination of Gaussian 09 at Wed Aug 26 11:29:45 2020.
