 Gaussian 09, Revision D.01,
 Gaussian 09:  ES64L-G09RevD.01 24-Apr-2013

 --------------------
 #p B2PLYPD3/Def2QZVP
 --------------------

 ------------
 cyanomethane
 ------------
 Symbolic Z-matrix:
 Charge =  0 Multiplicity = 1

                         Standard orientation:
 ---------------------------------------------------------------------
 Center     Atomic      Atomic             Coordinates (Angstroms)
 Number     Number       Type             X           Y           Z
 ---------------------------------------------------------------------
      1          6           0        1.162373   -0.003271   -0.000172
      2          6           0       -0.274200    0.016226   -0.016410
      3          7           0       -1.428103   -0.009893    0.016541
      4          1           0        1.668760   -0.255700    0.959188
      5          1           0        1.503235    0.999795   -0.277403
      6          1           0        1.495687   -0.752573   -0.698072
 ---------------------------------------------------------------------

 SCF Done:  E(RB2PLYPD3) =  -132.532354669     A.U. after   12 cycles
 E2(B2PLYPD3) =    -0.1806865193D+00 E(B2PLYPD3) =    -0.13271304118862D+03

 The electronic state is 1-A.
 Alpha  occ. eigenvalues --  -14.84213 -10.67058 -10.66223  -1.04196  -0.89474
 Alpha  occ. eigenvalues --   -0.60366  -0.54720  -0.52645  -0.44859  -0.39019
 Alpha  occ. eigenvalues --   -0.38855
 Alpha virt. eigenvalues --    0.03711   0.07168   0.08138   0.10102   0.11463
 Alpha virt. eigenvalues --    0.11764   0.15527   0.15888   0.17118   0.20043
 Alpha virt. eigenvalues --    0.20220   0.25772   0.32898   0.34285   0.34714

 Mulliken charges:
               1
     1  C   -0.082296
     2  C    0.002069
     3  N   -0.206368
     4  H    0.091368
     5  H    0.097129
     6  H    0.098098
 Sum of Mulliken charges =   0.00000

 Dipole moment (field-independent basis, Debye):
    X=              4.1218    Y=              0.0047    Z=             -0.0260  Tot=              4.1219
 Quadrupole moment (field-independent basis, Debye-Ang):
   XX=            -20.9092   YY=            -17.6418   ZZ=            -17.9160
   XY=             -0.1084   XZ=              0.2242   YZ=              0.0323

 Normal termination of Gaussian 09 at Wed Aug 26 14:09:53 2020.
