 Gaussian 09, Revision D.01,
 Gaussian 09:  ES64L-G09RevD.01 24-Apr-2013

 --------------------
 #p B2PLYPD3/Def2QZVP
 --------------------

 ------------
 cyanomethane
 ------------
 Symbolic Z-matrix:
 Charge =  0 Multiplicity = 1

                         Standard orientation:
 ---------------------------------------------------------------------
 Center     Atomic      Atomic             Coordinates (Angstroms)
 Number     Number       Type             X           Y           Z
 ---------------------------------------------------------------------
      1          6           0       -1.183543   -0.007182    0.011631
      2          6           0        0.295836   -0.013620   -0.036666
      3          7           0        1.434096    0.006203    0.016791
      4          1           0       -1.546864    1.027919   -0.070396
      5          1           0       -1.562848   -0.402793    0.888153
      6          1           0       -1.602718   -0.543735   -0.785088
 ---------------------------------------------------------------------

 SCF Done:  E(RB2PLYPD3) =  -132.532784611     A.U. after   11 cycles
 E2(B2PLYPD3) =    -0.1789213414D+00 E(B2PLYPD3) =    -0.13271170595272D+03

 The electronic state is 1-A.
 Alpha  occ. eigenvalues --  -14.83887 -10.66365 -10.65993  -1.04736  -0.89399
 Alpha  occ. eigenvalues --   -0.60222  -0.54569  -0.53507  -0.44808  -0.39730
 Alpha  occ. eigenvalues --   -0.39559
 Alpha virt. eigenvalues --    0.03839   0.08338   0.08669   0.10243   0.11395
 Alpha virt. eigenvalues --    0.11568   0.15396   0.16437   0.16988   0.19963
 Alpha virt. eigenvalues --    0.20036   0.25048   0.32857   0.34600   0.35689

 Mulliken charges:
               1
     1  C   -0.067593
     2  C   -0.002356
     3  N   -0.198027
     4  H    0.087739
     5  H    0.091958
     6  H    0.088279
 Sum of Mulliken charges =   0.00000

 Dipole moment (field-independent basis, Debye):
    X=             -4.1276    Y=             -0.0173    Z=             -0.0240  Tot=              4.1277
 Quadrupole moment (field-independent basis, Debye-Ang):
   XX=            -20.7180   YY=            -17.7210   ZZ=            -17.7671
   XY=              0.0083   XZ=             -0.0778   YZ=             -0.0117

 Normal termination of Gaussian 09 at Wed Aug 26 12:49:15 2020.
