 Gaussian 09, Revision D.01,
 Gaussian 09:  ES64L-G09RevD.01 24-Apr-2013

 --------------------
 #p B2PLYPD3/Def2QZVP
 --------------------

 ------------
 cyanomethane
 ------------
 Symbolic Z-matrix:
 Charge =  0 Multiplicity = 1

                         Standard orientation:
 ---------------------------------------------------------------------
 Center     Atomic      Atomic             Coordinates (Angstroms)
 Number     Number       Type             X           Y           Z
 ---------------------------------------------------------------------
      1          6           0       -1.178668   -0.009355    0.014332
      2          6           0        0.277990   -0.014033   -0.020477
      3          7           0        1.422019    0.008832    0.008050
      4          1           0       -1.525485    1.020796   -0.067157
      5          1           0       -1.497690   -0.418881    0.881013
      6          1           0       -1.526890   -0.523408   -0.833338
 ---------------------------------------------------------------------

 SCF Done:  E(RB2PLYPD3) =  -132.531486154     A.U. after   11 cycles
 E2(B2PLYPD3) =    -0.1791326130D+00 E(B2PLYPD3) =    -0.13271061876708D+03

 The electronic state is 1-A.
 Alpha  occ. eigenvalues --  -14.83783 -10.65882 -10.65783  -1.04458  -0.90232
 Alpha  occ. eigenvalues --   -0.59681  -0.56129  -0.54000  -0.44643  -0.39460
 Alpha  occ. eigenvalues --   -0.39184
 Alpha virt. eigenvalues --    0.03931   0.08396   0.08915   0.10208   0.11312
 Alpha virt. eigenvalues --    0.11628   0.15504   0.16019   0.16475   0.20026
 Alpha virt. eigenvalues --    0.20116   0.25377   0.33078   0.34509   0.35845

 Mulliken charges:
               1
     1  C   -0.078251
     2  C   -0.005736
     3  N   -0.203107
     4  H    0.091881
     5  H    0.100353
     6  H    0.094860
 Sum of Mulliken charges =   0.00000

 Dipole moment (field-independent basis, Debye):
    X=             -4.1123    Y=             -0.0090    Z=             -0.0191  Tot=              4.1124
 Quadrupole moment (field-independent basis, Debye-Ang):
   XX=            -21.0143   YY=            -17.6792   ZZ=            -17.5738
   XY=             -0.0712   XZ=             -0.0065   YZ=             -0.0317

 Normal termination of Gaussian 09 at Wed Aug 26 11:20:35 2020.
