 Gaussian 09, Revision D.01,
 Gaussian 09:  ES64L-G09RevD.01 24-Apr-2013

 --------------------
 #p B2PLYPD3/Def2QZVP
 --------------------

 ------------
 cyanomethane
 ------------
 Symbolic Z-matrix:
 Charge =  0 Multiplicity = 1

                         Standard orientation:
 ---------------------------------------------------------------------
 Center     Atomic      Atomic             Coordinates (Angstroms)
 Number     Number       Type             X           Y           Z
 ---------------------------------------------------------------------
      1          6           0       -1.163263    0.018598   -0.006418
      2          6           0        0.272475    0.001747    0.037115
      3          7           0        1.432806   -0.007953   -0.013881
      4          1           0       -1.489309    0.993246   -0.103413
      5          1           0       -1.652813   -0.464931    0.863144
      6          1           0       -1.542792   -0.594714   -0.846746
 ---------------------------------------------------------------------

 SCF Done:  E(RB2PLYPD3) =  -132.530896911     A.U. after   11 cycles
 E2(B2PLYPD3) =    -0.1811071773D+00 E(B2PLYPD3) =    -0.13271200408810D+03

 The electronic state is 1-A.
 Alpha  occ. eigenvalues --  -14.84441 -10.66695 -10.66443  -1.03951  -0.89757
 Alpha  occ. eigenvalues --   -0.60665  -0.55453  -0.52463  -0.44918  -0.39034
 Alpha  occ. eigenvalues --   -0.38642
 Alpha virt. eigenvalues --    0.03736   0.07178   0.08085   0.10148   0.11237
 Alpha virt. eigenvalues --    0.11761   0.15527   0.16449   0.16631   0.20042
 Alpha virt. eigenvalues --    0.20201   0.25802   0.32752   0.34069   0.35476

 Mulliken charges:
               1
     1  C   -0.071625
     2  C    0.002540
     3  N   -0.209569
     4  H    0.100622
     5  H    0.087587
     6  H    0.090445
 Sum of Mulliken charges =   0.00000

 Dipole moment (field-independent basis, Debye):
    X=             -4.1405    Y=             -0.0034    Z=              0.0068  Tot=              4.1405
 Quadrupole moment (field-independent basis, Debye-Ang):
   XX=            -20.8180   YY=            -17.6547   ZZ=            -17.9537
   XY=              0.1734   XZ=              0.0249   YZ=             -0.0128

 Normal termination of Gaussian 09 at Wed Aug 26 12:07:53 2020.
