 Gaussian 09, Revision D.01,
 Gaussian 09:  ES64L-G09RevD.01 24-Apr-2013

 --------------------
 #p B2PLYPD3/Def2QZVP
 --------------------

 ------------
 cyanomethane
 ------------
 Symbolic Z-matrix:
 Charge =  0 Multiplicity = 1

                         Standard orientation:
 ---------------------------------------------------------------------
 Center     Atomic      Atomic             Coordinates (Angstroms)
 Number     Number       Type             X           Y           Z
 ---------------------------------------------------------------------
      1          6           0       -1.171876    0.015593    0.014798
      2          6           0        0.263936   -0.035948   -0.007190
      3          7           0        1.434307    0.013017   -0.001722
      4          1           0       -1.484775   -0.129907    0.986169
      5          1           0       -1.606572   -0.802083   -0.627375
      6          1           0       -1.501157    0.963004   -0.392392
 ---------------------------------------------------------------------

 SCF Done:  E(RB2PLYPD3) =  -132.530084054     A.U. after   12 cycles
 E2(B2PLYPD3) =    -0.1818511007D+00 E(B2PLYPD3) =    -0.13271193515426D+03

 The electronic state is 1-A.
 Alpha  occ. eigenvalues --  -14.84583 -10.66700 -10.66585  -1.03489  -0.89964
 Alpha  occ. eigenvalues --   -0.60010  -0.55615  -0.53328  -0.44817  -0.38677
 Alpha  occ. eigenvalues --   -0.38424
 Alpha virt. eigenvalues --    0.03762   0.07218   0.08050   0.10114   0.11199
 Alpha virt. eigenvalues --    0.11486   0.15463   0.15994   0.16293   0.20167
 Alpha virt. eigenvalues --    0.20195   0.25770   0.32463   0.34281   0.35215

 Mulliken charges:
               1
     1  C   -0.082594
     2  C    0.001495
     3  N   -0.215354
     4  H    0.103320
     5  H    0.091603
     6  H    0.101529
 Sum of Mulliken charges =   0.00000

 Dipole moment (field-independent basis, Debye):
    X=             -4.1397    Y=             -0.0121    Z=              0.0112  Tot=              4.1397
 Quadrupole moment (field-independent basis, Debye-Ang):
   XX=            -21.0720   YY=            -17.7563   ZZ=            -17.7483
   XY=             -0.0004   XZ=              0.0602   YZ=             -0.0662

 Normal termination of Gaussian 09 at Wed Aug 26 14:34:49 2020.
