 Gaussian 09, Revision D.01,
 Gaussian 09:  ES64L-G09RevD.01 24-Apr-2013

 --------------------
 #p B2PLYPD3/Def2QZVP
 --------------------

 ------------
 cyanomethane
 ------------
 Symbolic Z-matrix:
 Charge =  0 Multiplicity = 1

                         Standard orientation:
 ---------------------------------------------------------------------
 Center     Atomic      Atomic             Coordinates (Angstroms)
 Number     Number       Type             X           Y           Z
 ---------------------------------------------------------------------
      1          6           0       -1.163255   -0.003451   -0.024427
      2          6           0        0.285256   -0.053346    0.030603
      3          7           0        1.420893    0.026320   -0.019852
      4          1           0       -1.555654    0.997243   -0.259694
      5          1           0       -1.477349   -0.157047    0.985809
      6          1           0       -1.645249   -0.683656   -0.624207
 ---------------------------------------------------------------------

 SCF Done:  E(RB2PLYPD3) =  -132.529997156     A.U. after   12 cycles
 E2(B2PLYPD3) =    -0.1791704261D+00 E(B2PLYPD3) =    -0.13270916758179D+03

 The electronic state is 1-A.
 Alpha  occ. eigenvalues --  -14.83853 -10.66182 -10.65872  -1.04827  -0.89807
 Alpha  occ. eigenvalues --   -0.60932  -0.54814  -0.53065  -0.44860  -0.39681
 Alpha  occ. eigenvalues --   -0.39220
 Alpha virt. eigenvalues --    0.03736   0.07937   0.08710   0.10106   0.11430
 Alpha virt. eigenvalues --    0.11863   0.15626   0.15760   0.17860   0.19989
 Alpha virt. eigenvalues --    0.20159   0.25811   0.33353   0.34137   0.35638

 Mulliken charges:
               1
     1  C   -0.070612
     2  C    0.003031
     3  N   -0.198762
     4  H    0.087384
     5  H    0.085915
     6  H    0.093044
 Sum of Mulliken charges =   0.00000

 Dipole moment (field-independent basis, Debye):
    X=             -4.1027    Y=             -0.0345    Z=              0.0711  Tot=              4.1035
 Quadrupole moment (field-independent basis, Debye-Ang):
   XX=            -20.7036   YY=            -17.7087   ZZ=            -17.7660
   XY=             -0.1390   XZ=              0.1286   YZ=              0.0772

 Normal termination of Gaussian 09 at Wed Aug 26 20:54:22 2020.
