 Gaussian 09, Revision D.01,
 Gaussian 09:  ES64L-G09RevD.01 24-Apr-2013

 --------------------
 #p B2PLYPD3/Def2QZVP
 --------------------

 ------------
 cyanomethane
 ------------
 Symbolic Z-matrix:
 Charge =  0 Multiplicity = 1

                         Standard orientation:
 ---------------------------------------------------------------------
 Center     Atomic      Atomic             Coordinates (Angstroms)
 Number     Number       Type             X           Y           Z
 ---------------------------------------------------------------------
      1          6           0       -1.174194    0.013722   -0.000270
      2          6           0        0.292711   -0.023839   -0.065585
      3          7           0        1.425931    0.008237    0.037118
      4          1           0       -1.526749    1.107512    0.013776
      5          1           0       -1.607186   -0.529895    0.964012
      6          1           0       -1.558688   -0.574575   -0.842483
 ---------------------------------------------------------------------

 SCF Done:  E(RB2PLYPD3) =  -132.525410755     A.U. after   12 cycles
 E2(B2PLYPD3) =    -0.1800648774D+00 E(B2PLYPD3) =    -0.13270547563270D+03

 The electronic state is 1-A.
 Alpha  occ. eigenvalues --  -14.83826 -10.68775 -10.65853  -1.04809  -0.87779
 Alpha  occ. eigenvalues --   -0.58655  -0.53853  -0.51336  -0.44780  -0.39538
 Alpha  occ. eigenvalues --   -0.39159
 Alpha virt. eigenvalues --    0.03197   0.06887   0.08205   0.10127   0.11454
 Alpha virt. eigenvalues --    0.11933   0.15293   0.15813   0.17017   0.19850
 Alpha virt. eigenvalues --    0.20078   0.25450   0.32324   0.32980   0.34241

 Mulliken charges:
               1
     1  C   -0.106995
     2  C   -0.000323
     3  N   -0.194638
     4  H    0.105700
     5  H    0.094494
     6  H    0.101762
 Sum of Mulliken charges =   0.00000

 Dipole moment (field-independent basis, Debye):
    X=             -4.0516    Y=             -0.0311    Z=             -0.0642  Tot=              4.0522
 Quadrupole moment (field-independent basis, Debye-Ang):
   XX=            -21.1688   YY=            -17.5872   ZZ=            -17.9256
   XY=              0.0582   XZ=             -0.2529   YZ=              0.0646

 Normal termination of Gaussian 09 at Wed Aug 26 21:07:21 2020.
