 Gaussian 09, Revision D.01,
 Gaussian 09:  ES64L-G09RevD.01 24-Apr-2013

 --------------------
 #p B2PLYPD3/Def2QZVP
 --------------------

 ------------
 cyanomethane
 ------------
 Symbolic Z-matrix:
 Charge =  0 Multiplicity = 1

                         Standard orientation:
 ---------------------------------------------------------------------
 Center     Atomic      Atomic             Coordinates (Angstroms)
 Number     Number       Type             X           Y           Z
 ---------------------------------------------------------------------
      1          6           0       -1.175928    0.007686    0.002060
      2          6           0        0.276155   -0.007156   -0.020658
      3          7           0        1.429145    0.004799    0.012309
      4          1           0       -1.556567   -0.092225    1.014370
      5          1           0       -1.501734   -0.875374   -0.560675
      6          1           0       -1.547075    0.930824   -0.428272
 ---------------------------------------------------------------------

 SCF Done:  E(RB2PLYPD3) =  -132.535095086     A.U. after   11 cycles
 E2(B2PLYPD3) =    -0.1803756682D+00 E(B2PLYPD3) =    -0.13271547075373D+03

 The electronic state is 1-A.
 Alpha  occ. eigenvalues --  -14.84093 -10.67064 -10.66130  -1.04134  -0.89369
 Alpha  occ. eigenvalues --   -0.59569  -0.54557  -0.53601  -0.44731  -0.39094
 Alpha  occ. eigenvalues --   -0.38941
 Alpha virt. eigenvalues --    0.03765   0.07816   0.08125   0.10152   0.11391
 Alpha virt. eigenvalues --    0.11594   0.15418   0.15899   0.16584   0.20061
 Alpha virt. eigenvalues --    0.20138   0.25455   0.32814   0.34302   0.34869

 Mulliken charges:
               1
     1  C   -0.088351
     2  C   -0.001875
     3  N   -0.206353
     4  H    0.097146
     5  H    0.098409
     6  H    0.101023
 Sum of Mulliken charges =   0.00000

 Dipole moment (field-independent basis, Debye):
    X=             -4.1158    Y=             -0.0158    Z=             -0.0042  Tot=              4.1158
 Quadrupole moment (field-independent basis, Debye-Ang):
   XX=            -21.0968   YY=            -17.6209   ZZ=            -17.8046
   XY=             -0.0371   XZ=             -0.1325   YZ=             -0.0162

 Normal termination of Gaussian 09 at Wed Aug 26 10:01:13 2020.
