 Gaussian 09, Revision D.01,
 Gaussian 09:  ES64L-G09RevD.01 24-Apr-2013

 --------------------
 #p B2PLYPD3/Def2QZVP
 --------------------

 ------------
 cyanomethane
 ------------
 Symbolic Z-matrix:
 Charge =  0 Multiplicity = 1

                         Standard orientation:
 ---------------------------------------------------------------------
 Center     Atomic      Atomic             Coordinates (Angstroms)
 Number     Number       Type             X           Y           Z
 ---------------------------------------------------------------------
      1          6           0       -1.167779    0.009396    0.005568
      2          6           0        0.275675    0.014398   -0.005464
      3          7           0        1.430383   -0.009138    0.003108
      4          1           0       -1.544928    1.006970   -0.130150
      5          1           0       -1.566684   -0.436532    0.946753
      6          1           0       -1.548443   -0.649238   -0.838986
 ---------------------------------------------------------------------

 SCF Done:  E(RB2PLYPD3) =  -132.533317092     A.U. after   11 cycles
 E2(B2PLYPD3) =    -0.1807800176D+00 E(B2PLYPD3) =    -0.13271409710919D+03

 The electronic state is 1-A.
 Alpha  occ. eigenvalues --  -14.84203 -10.67560 -10.66226  -1.04137  -0.89059
 Alpha  occ. eigenvalues --   -0.59779  -0.54342  -0.52729  -0.44820  -0.39065
 Alpha  occ. eigenvalues --   -0.38802
 Alpha virt. eigenvalues --    0.03637   0.07292   0.07891   0.10138   0.11412
 Alpha virt. eigenvalues --    0.11749   0.15465   0.16171   0.16526   0.20049
 Alpha virt. eigenvalues --    0.20144   0.25587   0.32659   0.33738   0.34825

 Mulliken charges:
               1
     1  C   -0.089314
     2  C    0.000292
     3  N   -0.205890
     4  H    0.101963
     5  H    0.098073
     6  H    0.094877
 Sum of Mulliken charges =   0.00000

 Dipole moment (field-independent basis, Debye):
    X=             -4.1140    Y=              0.0089    Z=             -0.0058  Tot=              4.1141
 Quadrupole moment (field-independent basis, Debye-Ang):
   XX=            -21.0506   YY=            -17.7110   ZZ=            -17.8187
   XY=              0.0750   XZ=             -0.0262   YZ=             -0.0343

 Normal termination of Gaussian 09 at Wed Aug 26 16:02:08 2020.
