 Gaussian 09, Revision D.01,
 Gaussian 09:  ES64L-G09RevD.01 24-Apr-2013

 --------------------
 #p B2PLYPD3/Def2QZVP
 --------------------

 ------------
 cyanomethane
 ------------
 Symbolic Z-matrix:
 Charge =  0 Multiplicity = 1

                         Standard orientation:
 ---------------------------------------------------------------------
 Center     Atomic      Atomic             Coordinates (Angstroms)
 Number     Number       Type             X           Y           Z
 ---------------------------------------------------------------------
      1          6           0       -1.171101    0.009273    0.001904
      2          6           0        0.283501   -0.009425   -0.020371
      3          7           0        1.426390    0.000917    0.010311
      4          1           0       -1.512609    1.029969   -0.072691
      5          1           0       -1.567311   -0.441683    0.918048
      6          1           0       -1.579206   -0.593791   -0.806733
 ---------------------------------------------------------------------

 SCF Done:  E(RB2PLYPD3) =  -132.535922557     A.U. after   11 cycles
 E2(B2PLYPD3) =    -0.1794994546D+00 E(B2PLYPD3) =    -0.13271542201125D+03

 The electronic state is 1-A.
 Alpha  occ. eigenvalues --  -14.83880 -10.66974 -10.65911  -1.04579  -0.89242
 Alpha  occ. eigenvalues --   -0.59849  -0.54516  -0.53191  -0.44765  -0.39411
 Alpha  occ. eigenvalues --   -0.39245
 Alpha virt. eigenvalues --    0.03780   0.07944   0.08248   0.10199   0.11504
 Alpha virt. eigenvalues --    0.11720   0.15456   0.16360   0.16619   0.19996
 Alpha virt. eigenvalues --    0.20081   0.25444   0.32931   0.34457   0.34981

 Mulliken charges:
               1
     1  C   -0.081497
     2  C   -0.003028
     3  N   -0.200337
     4  H    0.099041
     5  H    0.092867
     6  H    0.092954
 Sum of Mulliken charges =   0.00000

 Dipole moment (field-independent basis, Debye):
    X=             -4.1102    Y=             -0.0148    Z=             -0.0107  Tot=              4.1102
 Quadrupole moment (field-independent basis, Debye-Ang):
   XX=            -20.9391   YY=            -17.6142   ZZ=            -17.8325
   XY=              0.0840   XZ=             -0.0691   YZ=              0.0001

 Normal termination of Gaussian 09 at Wed Aug 26 16:20:08 2020.
