 Gaussian 09, Revision D.01,
 Gaussian 09:  ES64L-G09RevD.01 24-Apr-2013

 --------------------
 #p B2PLYPD3/Def2QZVP
 --------------------

 ------------
 cyanomethane
 ------------
 Symbolic Z-matrix:
 Charge =  0 Multiplicity = 1

                         Standard orientation:
 ---------------------------------------------------------------------
 Center     Atomic      Atomic             Coordinates (Angstroms)
 Number     Number       Type             X           Y           Z
 ---------------------------------------------------------------------
      1          6           0        1.211516   -0.009225    0.002251
      2          6           0       -0.266587   -0.016490   -0.043968
      3          7           0       -1.450490    0.009707    0.008817
      4          1           0        1.594891    0.950630   -0.463836
      5          1           0        1.578169   -0.912578   -0.421090
      6          1           0        1.310798    0.048285    1.073506
 ---------------------------------------------------------------------

 SCF Done:  E(RB2PLYPD3) =  -132.523830046     A.U. after   13 cycles
 E2(B2PLYPD3) =    -0.1834327630D+00 E(B2PLYPD3) =    -0.13270726280858D+03

 The electronic state is 1-A.
 Alpha  occ. eigenvalues --  -14.84800 -10.67674 -10.67072  -1.02736  -0.89339
 Alpha  occ. eigenvalues --   -0.58445  -0.55366  -0.53690  -0.44553  -0.38399
 Alpha  occ. eigenvalues --   -0.38017
 Alpha virt. eigenvalues --    0.03606   0.07312   0.08131   0.10186   0.10708
 Alpha virt. eigenvalues --    0.11300   0.14606   0.15083   0.16386   0.20167
 Alpha virt. eigenvalues --    0.20327   0.24899   0.31680   0.33772   0.35016

 Mulliken charges:
               1
     1  C   -0.108098
     2  C    0.000720
     3  N   -0.222701
     4  H    0.105396
     5  H    0.111360
     6  H    0.113322
 Sum of Mulliken charges =   0.00000

 Dipole moment (field-independent basis, Debye):
    X=              4.1651    Y=             -0.0069    Z=              0.0328  Tot=              4.1652
 Quadrupole moment (field-independent basis, Debye-Ang):
   XX=            -21.4612   YY=            -17.6337   ZZ=            -17.8920
   XY=              0.0587   XZ=             -0.1263   YZ=              0.0502

 Normal termination of Gaussian 09 at Wed Aug 26 23:26:04 2020.
