 Gaussian 09, Revision D.01,
 Gaussian 09:  ES64L-G09RevD.01 24-Apr-2013

 --------------------
 #p B2PLYPD3/Def2QZVP
 --------------------

 ------------
 cyanomethane
 ------------
 Symbolic Z-matrix:
 Charge =  0 Multiplicity = 1

                         Standard orientation:
 ---------------------------------------------------------------------
 Center     Atomic      Atomic             Coordinates (Angstroms)
 Number     Number       Type             X           Y           Z
 ---------------------------------------------------------------------
      1          6           0       -1.171738    0.011439    0.003994
      2          6           0        0.262727   -0.025762    0.004753
      3          7           0        1.431538    0.013348   -0.002695
      4          1           0       -1.522592   -0.141320    0.997950
      5          1           0       -1.508857   -0.850317   -0.630677
      6          1           0       -1.535249    0.984143   -0.400889
 ---------------------------------------------------------------------

 SCF Done:  E(RB2PLYPD3) =  -132.531384150     A.U. after   12 cycles
 E2(B2PLYPD3) =    -0.1819228971D+00 E(B2PLYPD3) =    -0.13271330704728D+03

 The electronic state is 1-A.
 Alpha  occ. eigenvalues --  -14.84469 -10.67310 -10.66484  -1.03521  -0.89573
 Alpha  occ. eigenvalues --   -0.59549  -0.54451  -0.53793  -0.44755  -0.38574
 Alpha  occ. eigenvalues --   -0.38422
 Alpha virt. eigenvalues --    0.03653   0.07284   0.07771   0.10080   0.11358
 Alpha virt. eigenvalues --    0.11463   0.15402   0.15632   0.16394   0.20168
 Alpha virt. eigenvalues --    0.20210   0.25732   0.32591   0.33945   0.34558

 Mulliken charges:
               1
     1  C   -0.094931
     2  C    0.001719
     3  N   -0.214661
     4  H    0.103137
     5  H    0.100161
     6  H    0.104575
 Sum of Mulliken charges =   0.00000

 Dipole moment (field-independent basis, Debye):
    X=             -4.1253    Y=             -0.0266    Z=              0.0203  Tot=              4.1254
 Quadrupole moment (field-independent basis, Debye-Ang):
   XX=            -21.2433   YY=            -17.6485   ZZ=            -17.8130
   XY=             -0.0644   XZ=             -0.0311   YZ=             -0.0249

 Normal termination of Gaussian 09 at Wed Aug 26 13:49:12 2020.
