 Gaussian 09, Revision D.01,
 Gaussian 09:  ES64L-G09RevD.01 24-Apr-2013

 --------------------
 #p B2PLYPD3/Def2QZVP
 --------------------

 ------------
 cyanomethane
 ------------
 Symbolic Z-matrix:
 Charge =  0 Multiplicity = 1

                         Standard orientation:
 ---------------------------------------------------------------------
 Center     Atomic      Atomic             Coordinates (Angstroms)
 Number     Number       Type             X           Y           Z
 ---------------------------------------------------------------------
      1          6           0       -1.175140   -0.004513    0.001155
      2          6           0        0.280714    0.013856    0.020556
      3          7           0        1.429166   -0.005495   -0.015248
      4          1           0       -1.584204   -0.593954   -0.831923
      5          1           0       -1.568831    1.014441   -0.097933
      6          1           0       -1.484576   -0.438079    0.906325
 ---------------------------------------------------------------------

 SCF Done:  E(RB2PLYPD3) =  -132.534477287     A.U. after   12 cycles
 E2(B2PLYPD3) =    -0.1799409749D+00 E(B2PLYPD3) =    -0.13271441826198D+03

 The electronic state is 1-A.
 Alpha  occ. eigenvalues --  -14.84027 -10.66850 -10.66063  -1.04334  -0.89427
 Alpha  occ. eigenvalues --   -0.59741  -0.54807  -0.53348  -0.44763  -0.39243
 Alpha  occ. eigenvalues --   -0.39138
 Alpha virt. eigenvalues --    0.03769   0.07708   0.08497   0.10180   0.11408
 Alpha virt. eigenvalues --    0.11611   0.15458   0.15996   0.16775   0.20039
 Alpha virt. eigenvalues --    0.20112   0.25417   0.32849   0.34508   0.35013

 Mulliken charges:
               1
     1  C   -0.082777
     2  C   -0.002574
     3  N   -0.203675
     4  H    0.094362
     5  H    0.095132
     6  H    0.099531
 Sum of Mulliken charges =   0.00000

 Dipole moment (field-independent basis, Debye):
    X=             -4.1166    Y=              0.0001    Z=              0.0286  Tot=              4.1167
 Quadrupole moment (field-independent basis, Debye-Ang):
   XX=            -20.9760   YY=            -17.7118   ZZ=            -17.7333
   XY=              0.0265   XZ=              0.1495   YZ=             -0.0421

 Normal termination of Gaussian 09 at Wed Aug 26 23:05:31 2020.
