 Gaussian 09, Revision D.01,
 Gaussian 09:  ES64L-G09RevD.01 24-Apr-2013

 --------------------
 #p B2PLYPD3/Def2QZVP
 --------------------

 ------------
 cyanomethane
 ------------
 Symbolic Z-matrix:
 Charge =  0 Multiplicity = 1

                         Standard orientation:
 ---------------------------------------------------------------------
 Center     Atomic      Atomic             Coordinates (Angstroms)
 Number     Number       Type             X           Y           Z
 ---------------------------------------------------------------------
      1          6           0        1.176815   -0.002026   -0.009066
      2          6           0       -0.285726   -0.004175    0.023620
      3          7           0       -1.434890    0.001068   -0.011344
      4          1           0        1.547060    1.026570   -0.017577
      5          1           0        1.573818   -0.512215   -0.844127
      6          1           0        1.576813   -0.484622    0.853787
 ---------------------------------------------------------------------

 SCF Done:  E(RB2PLYPD3) =  -132.534922222     A.U. after   11 cycles
 E2(B2PLYPD3) =    -0.1798745141D+00 E(B2PLYPD3) =    -0.13271479673602D+03

 The electronic state is 1-A.
 Alpha  occ. eigenvalues --  -14.84138 -10.66591 -10.66210  -1.04349  -0.89447
 Alpha  occ. eigenvalues --   -0.60323  -0.54095  -0.53844  -0.44845  -0.39323
 Alpha  occ. eigenvalues --   -0.39255
 Alpha virt. eigenvalues --    0.03827   0.08051   0.08232   0.10193   0.11466
 Alpha virt. eigenvalues --    0.11476   0.15458   0.16327   0.16856   0.20046
 Alpha virt. eigenvalues --    0.20077   0.25307   0.32866   0.34715   0.35210

 Mulliken charges:
               1
     1  C   -0.070578
     2  C   -0.000705
     3  N   -0.203514
     4  H    0.092079
     5  H    0.092843
     6  H    0.089874
 Sum of Mulliken charges =   0.00000

 Dipole moment (field-independent basis, Debye):
    X=              4.1349    Y=             -0.0143    Z=              0.0204  Tot=              4.1350
 Quadrupole moment (field-independent basis, Debye-Ang):
   XX=            -20.7951   YY=            -17.7066   ZZ=            -17.8265
   XY=             -0.0470   XZ=             -0.0517   YZ=              0.0142

 Normal termination of Gaussian 09 at Thu Aug 27 00:07:53 2020.
