 Gaussian 09, Revision D.01,
 Gaussian 09:  ES64L-G09RevD.01 24-Apr-2013

 --------------------
 #p B2PLYPD3/Def2QZVP
 --------------------

 ------------
 cyanomethane
 ------------
 Symbolic Z-matrix:
 Charge =  0 Multiplicity = 1

                         Standard orientation:
 ---------------------------------------------------------------------
 Center     Atomic      Atomic             Coordinates (Angstroms)
 Number     Number       Type             X           Y           Z
 ---------------------------------------------------------------------
      1          6           0        1.163283    0.017185    0.003963
      2          6           0       -0.297975   -0.060928    0.019668
      3          7           0       -1.420316    0.028799   -0.017249
      4          1           0        1.574596    1.039259   -0.191425
      5          1           0        1.663884   -0.656222   -0.790564
      6          1           0        1.511881   -0.322170    0.960943
 ---------------------------------------------------------------------

 SCF Done:  E(RB2PLYPD3) =  -132.529881017     A.U. after   12 cycles
 E2(B2PLYPD3) =    -0.1786923402D+00 E(B2PLYPD3) =    -0.13270857335740D+03

 The electronic state is 1-A.
 Alpha  occ. eigenvalues --  -14.83571 -10.67785 -10.65584  -1.05369  -0.88335
 Alpha  occ. eigenvalues --   -0.59687  -0.53756  -0.51914  -0.44848  -0.39852
 Alpha  occ. eigenvalues --   -0.39663
 Alpha virt. eigenvalues --    0.03517   0.07318   0.08505   0.10148   0.11689
 Alpha virt. eigenvalues --    0.12001   0.15502   0.16147   0.17444   0.19855
 Alpha virt. eigenvalues --    0.20035   0.25648   0.32566   0.34259   0.34573

 Mulliken charges:
               1
     1  C   -0.087661
     2  C   -0.002630
     3  N   -0.188264
     4  H    0.095732
     5  H    0.086993
     6  H    0.095831
 Sum of Mulliken charges =   0.00000

 Dipole moment (field-independent basis, Debye):
    X=              4.0578    Y=             -0.0436    Z=              0.0484  Tot=              4.0583
 Quadrupole moment (field-independent basis, Debye-Ang):
   XX=            -20.8298   YY=            -17.7603   ZZ=            -17.7685
   XY=              0.1580   XZ=             -0.1683   YZ=             -0.0551

 Normal termination of Gaussian 09 at Wed Aug 26 20:21:38 2020.
