 Gaussian 09, Revision D.01,
 Gaussian 09:  ES64L-G09RevD.01 24-Apr-2013

 --------------------
 #p B2PLYPD3/Def2QZVP
 --------------------

 ------------
 cyanomethane
 ------------
 Symbolic Z-matrix:
 Charge =  0 Multiplicity = 1

                         Standard orientation:
 ---------------------------------------------------------------------
 Center     Atomic      Atomic             Coordinates (Angstroms)
 Number     Number       Type             X           Y           Z
 ---------------------------------------------------------------------
      1          6           0        1.193376   -0.013040   -0.046517
      2          6           0       -0.287629   -0.007965   -0.013495
      3          7           0       -1.429160    0.002735    0.020914
      4          1           0        1.655644   -0.210639    1.053388
      5          1           0        1.453063    1.038253   -0.220583
      6          1           0        1.460925   -0.720723   -0.619128
 ---------------------------------------------------------------------

 SCF Done:  E(RB2PLYPD3) =  -132.508372709     A.U. after   12 cycles
 E2(B2PLYPD3) =    -0.1796932615D+00 E(B2PLYPD3) =    -0.13268806597019D+03

 The electronic state is 1-A.
 Alpha  occ. eigenvalues --  -14.83756 -10.67196 -10.65837  -1.04527  -0.89554
 Alpha  occ. eigenvalues --   -0.59672  -0.57090  -0.50808  -0.44590  -0.39768
 Alpha  occ. eigenvalues --   -0.38864
 Alpha virt. eigenvalues --    0.03414   0.07190   0.09513   0.10220   0.10960
 Alpha virt. eigenvalues --    0.12008   0.15049   0.15987   0.16487   0.19895
 Alpha virt. eigenvalues --    0.20158   0.24779   0.31134   0.33232   0.35789

 Mulliken charges:
               1
     1  C   -0.105214
     2  C   -0.005174
     3  N   -0.200610
     4  H    0.082771
     5  H    0.108845
     6  H    0.119382
 Sum of Mulliken charges =   0.00000

 Dipole moment (field-independent basis, Debye):
    X=              4.0887    Y=              0.0253    Z=             -0.0243  Tot=              4.0888
 Quadrupole moment (field-independent basis, Debye-Ang):
   XX=            -21.2131   YY=            -17.4643   ZZ=            -17.8871
   XY=              0.0129   XZ=              0.3060   YZ=              0.1892

 Normal termination of Gaussian 09 at Wed Aug 26 23:17:22 2020.
