 Gaussian 09, Revision D.01,
 Gaussian 09:  ES64L-G09RevD.01 24-Apr-2013

 --------------------
 #p B2PLYPD3/Def2QZVP
 --------------------

 ------------
 cyanomethane
 ------------
 Symbolic Z-matrix:
 Charge =  0 Multiplicity = 1

                         Standard orientation:
 ---------------------------------------------------------------------
 Center     Atomic      Atomic             Coordinates (Angstroms)
 Number     Number       Type             X           Y           Z
 ---------------------------------------------------------------------
      1          6           0        1.158510    0.001806    0.000424
      2          6           0       -0.263384    0.069799   -0.001838
      3          7           0       -1.436702   -0.043402   -0.007570
      4          1           0        1.521375    0.895046   -0.362308
      5          1           0        1.708416   -0.847799   -0.587034
      6          1           0        1.456371   -0.173067    1.010813
 ---------------------------------------------------------------------

 SCF Done:  E(RB2PLYPD3) =  -132.520478539     A.U. after   13 cycles
 E2(B2PLYPD3) =    -0.1830031271D+00 E(B2PLYPD3) =    -0.13270348166590D+03

 The electronic state is 1-A.
 Alpha  occ. eigenvalues --  -14.84978 -10.66927 -10.66733  -1.03383  -0.90038
 Alpha  occ. eigenvalues --   -0.60813  -0.55872  -0.51916  -0.45053  -0.38555
 Alpha  occ. eigenvalues --   -0.38148
 Alpha virt. eigenvalues --    0.03216   0.06353   0.08144   0.09898   0.11048
 Alpha virt. eigenvalues --    0.11764   0.15550   0.15696   0.17375   0.20083
 Alpha virt. eigenvalues --    0.20490   0.26189   0.32602   0.33747   0.35154

 Mulliken charges:
               1
     1  C   -0.076109
     2  C    0.006899
     3  N   -0.215824
     4  H    0.099063
     5  H    0.088340
     6  H    0.097631
 Sum of Mulliken charges =   0.00000

 Dipole moment (field-independent basis, Debye):
    X=              4.1398    Y=              0.0664    Z=              0.0472  Tot=              4.1406
 Quadrupole moment (field-independent basis, Debye-Ang):
   XX=            -20.8004   YY=            -17.8306   ZZ=            -17.9081
   XY=             -0.3154   XZ=             -0.1059   YZ=             -0.1222

 Normal termination of Gaussian 09 at Wed Aug 26 21:52:30 2020.
