 Gaussian 09, Revision D.01,
 Gaussian 09:  ES64L-G09RevD.01 24-Apr-2013

 --------------------
 #p B2PLYPD3/Def2QZVP
 --------------------

 ------------
 cyanomethane
 ------------
 Symbolic Z-matrix:
 Charge =  0 Multiplicity = 1

                         Standard orientation:
 ---------------------------------------------------------------------
 Center     Atomic      Atomic             Coordinates (Angstroms)
 Number     Number       Type             X           Y           Z
 ---------------------------------------------------------------------
      1          6           0        1.176354    0.005120    0.002506
      2          6           0       -0.282362   -0.031905   -0.013012
      3          7           0       -1.427626    0.018679    0.009516
      4          1           0        1.579768   -0.112558    0.987980
      5          1           0        1.557207    0.951192   -0.394607
      6          1           0        1.492457   -0.808675   -0.596953
 ---------------------------------------------------------------------

 SCF Done:  E(RB2PLYPD3) =  -132.534688301     A.U. after   11 cycles
 E2(B2PLYPD3) =    -0.1796522196D+00 E(B2PLYPD3) =    -0.13271434052022D+03

 The electronic state is 1-A.
 Alpha  occ. eigenvalues --  -14.83954 -10.66646 -10.65985  -1.04431  -0.89512
 Alpha  occ. eigenvalues --   -0.59803  -0.54665  -0.53705  -0.44749  -0.39284
 Alpha  occ. eigenvalues --   -0.39273
 Alpha virt. eigenvalues --    0.03796   0.07915   0.08591   0.10163   0.11420
 Alpha virt. eigenvalues --    0.11588   0.15459   0.15904   0.16930   0.20005
 Alpha virt. eigenvalues --    0.20118   0.25416   0.32994   0.34765   0.34948

 Mulliken charges:
               1
     1  C   -0.080959
     2  C   -0.002900
     3  N   -0.202533
     4  H    0.093958
     5  H    0.095521
     6  H    0.096914
 Sum of Mulliken charges =   0.00000

 Dipole moment (field-independent basis, Debye):
    X=              4.1128    Y=             -0.0365    Z=             -0.0086  Tot=              4.1130
 Quadrupole moment (field-independent basis, Debye-Ang):
   XX=            -20.9561   YY=            -17.6480   ZZ=            -17.7648
   XY=              0.1285   XZ=              0.1191   YZ=              0.0211

 Normal termination of Gaussian 09 at Wed Aug 26 12:40:20 2020.
