 Gaussian 09, Revision D.01,
 Gaussian 09:  ES64L-G09RevD.01 24-Apr-2013

 --------------------
 #p B2PLYPD3/Def2QZVP
 --------------------

 ------------
 cyanomethane
 ------------
 Symbolic Z-matrix:
 Charge =  0 Multiplicity = 1

                         Standard orientation:
 ---------------------------------------------------------------------
 Center     Atomic      Atomic             Coordinates (Angstroms)
 Number     Number       Type             X           Y           Z
 ---------------------------------------------------------------------
      1          6           0       -1.178280   -0.027201   -0.028658
      2          6           0        0.278777    0.071313    0.015276
      3          7           0        1.415836   -0.023225   -0.000466
      4          1           0       -1.553027   -0.153071    1.030822
      5          1           0       -1.346875   -0.886913   -0.567146
      6          1           0       -1.613929    0.937889   -0.380119
 ---------------------------------------------------------------------

 SCF Done:  E(RB2PLYPD3) =  -132.528471866     A.U. after   12 cycles
 E2(B2PLYPD3) =    -0.1795230568D+00 E(B2PLYPD3) =    -0.13270799492235D+03

 The electronic state is 1-A.
 Alpha  occ. eigenvalues --  -14.83630 -10.67210 -10.65639  -1.04591  -0.89325
 Alpha  occ. eigenvalues --   -0.58459  -0.56327  -0.52448  -0.44561  -0.39472
 Alpha  occ. eigenvalues --   -0.39028
 Alpha virt. eigenvalues --    0.03697   0.07820   0.08480   0.10193   0.11444
 Alpha virt. eigenvalues --    0.11855   0.15137   0.15903   0.16314   0.19899
 Alpha virt. eigenvalues --    0.20130   0.25655   0.32514   0.33281   0.35924

 Mulliken charges:
               1
     1  C   -0.101331
     2  C   -0.005058
     3  N   -0.201386
     4  H    0.092020
     5  H    0.114820
     6  H    0.100936
 Sum of Mulliken charges =   0.00000

 Dipole moment (field-independent basis, Debye):
    X=             -4.0651    Y=              0.0291    Z=              0.0310  Tot=              4.0653
 Quadrupole moment (field-independent basis, Debye-Ang):
   XX=            -21.2815   YY=            -17.4387   ZZ=            -17.8266
   XY=             -0.0677   XZ=             -0.1652   YZ=              0.0909

 Normal termination of Gaussian 09 at Wed Aug 26 22:38:36 2020.
