 Gaussian 09, Revision D.01,
 Gaussian 09:  ES64L-G09RevD.01 24-Apr-2013

 --------------------
 #p B2PLYPD3/Def2QZVP
 --------------------

 ------------
 cyanomethane
 ------------
 Symbolic Z-matrix:
 Charge =  0 Multiplicity = 1

                         Standard orientation:
 ---------------------------------------------------------------------
 Center     Atomic      Atomic             Coordinates (Angstroms)
 Number     Number       Type             X           Y           Z
 ---------------------------------------------------------------------
      1          6           0       -1.185870   -0.012516   -0.004415
      2          6           0        0.287028    0.022044   -0.003826
      3          7           0        1.432499   -0.010135    0.003425
      4          1           0       -1.557872    0.003410    1.019784
      5          1           0       -1.535974   -0.889552   -0.498324
      6          1           0       -1.540595    0.899917   -0.495985
 ---------------------------------------------------------------------

 SCF Done:  E(RB2PLYPD3) =  -132.535624919     A.U. after   11 cycles
 E2(B2PLYPD3) =    -0.1796565467D+00 E(B2PLYPD3) =    -0.13271528146524D+03

 The electronic state is 1-A.
 Alpha  occ. eigenvalues --  -14.83925 -10.67091 -10.66010  -1.04402  -0.89069
 Alpha  occ. eigenvalues --   -0.59280  -0.54596  -0.53477  -0.44698  -0.39411
 Alpha  occ. eigenvalues --   -0.39242
 Alpha virt. eigenvalues --    0.03782   0.08169   0.08327   0.10210   0.11378
 Alpha virt. eigenvalues --    0.11553   0.15308   0.16040   0.16619   0.20011
 Alpha virt. eigenvalues --    0.20079   0.25095   0.32699   0.34363   0.35128

 Mulliken charges:
               1
     1  C   -0.086833
     2  C   -0.004551
     3  N   -0.201809
     4  H    0.095433
     5  H    0.101379
     6  H    0.096381
 Sum of Mulliken charges =   0.00000

 Dipole moment (field-independent basis, Debye):
    X=             -4.1177    Y=              0.0182    Z=              0.0050  Tot=              4.1177
 Quadrupole moment (field-independent basis, Debye-Ang):
   XX=            -21.0395   YY=            -17.6428   ZZ=            -17.7771
   XY=              0.0447   XZ=             -0.0630   YZ=              0.0313

 Normal termination of Gaussian 09 at Thu Aug 27 00:10:23 2020.
