 Gaussian 09, Revision D.01,
 Gaussian 09:  ES64L-G09RevD.01 24-Apr-2013

 --------------------
 #p B2PLYPD3/Def2QZVP
 --------------------

 ------------
 cyanomethane
 ------------
 Symbolic Z-matrix:
 Charge =  0 Multiplicity = 1

                         Standard orientation:
 ---------------------------------------------------------------------
 Center     Atomic      Atomic             Coordinates (Angstroms)
 Number     Number       Type             X           Y           Z
 ---------------------------------------------------------------------
      1          6           0        1.205339   -0.008414    0.014689
      2          6           0       -0.270374   -0.016693   -0.056779
      3          7           0       -1.449499    0.004432    0.016008
      4          1           0        1.552228    0.887817   -0.501746
      5          1           0        1.647170   -0.877908   -0.374194
      6          1           0        1.337300    0.109707    1.016426
 ---------------------------------------------------------------------

 SCF Done:  E(RB2PLYPD3) =  -132.524665631     A.U. after   13 cycles
 E2(B2PLYPD3) =    -0.1825438400D+00 E(B2PLYPD3) =    -0.13270720947145D+03

 The electronic state is 1-A.
 Alpha  occ. eigenvalues --  -14.84816 -10.67026 -10.66394  -1.02977  -0.90099
 Alpha  occ. eigenvalues --   -0.59350  -0.55920  -0.54384  -0.44682  -0.38581
 Alpha  occ. eigenvalues --   -0.38358
 Alpha virt. eigenvalues --    0.03836   0.07727   0.08220   0.10264   0.10838
 Alpha virt. eigenvalues --    0.11230   0.14920   0.15469   0.16507   0.20157
 Alpha virt. eigenvalues --    0.20264   0.25067   0.32076   0.34631   0.35709

 Mulliken charges:
               1
     1  C   -0.088290
     2  C    0.000538
     3  N   -0.220801
     4  H    0.097095
     5  H    0.101430
     6  H    0.110027
 Sum of Mulliken charges =   0.00000

 Dipole moment (field-independent basis, Debye):
    X=              4.1784    Y=              0.0092    Z=              0.0121  Tot=              4.1784
 Quadrupole moment (field-independent basis, Debye-Ang):
   XX=            -21.1097   YY=            -17.7123   ZZ=            -17.8235
   XY=             -0.0360   XZ=             -0.0796   YZ=              0.0391

 Normal termination of Gaussian 09 at Wed Aug 26 21:20:13 2020.
