 Gaussian 09, Revision D.01,
 Gaussian 09:  ES64L-G09RevD.01 24-Apr-2013

 --------------------
 #p B2PLYPD3/Def2QZVP
 --------------------

 ------------
 cyanomethane
 ------------
 Symbolic Z-matrix:
 Charge =  0 Multiplicity = 1

                         Standard orientation:
 ---------------------------------------------------------------------
 Center     Atomic      Atomic             Coordinates (Angstroms)
 Number     Number       Type             X           Y           Z
 ---------------------------------------------------------------------
      1          6           0        1.180505   -0.004941    0.015896
      2          6           0       -0.282938   -0.024790   -0.031849
      3          7           0       -1.412470    0.003664    0.020929
      4          1           0        1.567147    0.148234    0.988378
      5          1           0        1.360662    0.985173   -0.595362
      6          1           0        1.574080   -0.980668   -0.443800
 ---------------------------------------------------------------------

 SCF Done:  E(RB2PLYPD3) =  -132.523459351     A.U. after   12 cycles
 E2(B2PLYPD3) =    -0.1792241048D+00 E(B2PLYPD3) =    -0.13270268345578D+03

 The electronic state is 1-A.
 Alpha  occ. eigenvalues --  -14.83295 -10.68298 -10.65403  -1.04931  -0.88498
 Alpha  occ. eigenvalues --   -0.58967  -0.53942  -0.52312  -0.44481  -0.39578
 Alpha  occ. eigenvalues --   -0.39082
 Alpha virt. eigenvalues --    0.03472   0.07897   0.07961   0.10176   0.11653
 Alpha virt. eigenvalues --    0.12180   0.15027   0.15456   0.16810   0.19942
 Alpha virt. eigenvalues --    0.20108   0.25272   0.31625   0.32955   0.34636

 Mulliken charges:
               1
     1  C   -0.121402
     2  C   -0.002380
     3  N   -0.195113
     4  H    0.107256
     5  H    0.103813
     6  H    0.107826
 Sum of Mulliken charges =   0.00000

 Dipole moment (field-independent basis, Debye):
    X=              4.0330    Y=              0.0127    Z=              0.0117  Tot=              4.0330
 Quadrupole moment (field-independent basis, Debye-Ang):
   XX=            -21.5062   YY=            -17.3716   ZZ=            -17.8450
   XY=             -0.1147   XZ=              0.3367   YZ=              0.0503

 Normal termination of Gaussian 09 at Wed Aug 26 19:04:17 2020.
