 Gaussian 09, Revision D.01,
 Gaussian 09:  ES64L-G09RevD.01 24-Apr-2013

 --------------------
 #p B2PLYPD3/Def2QZVP
 --------------------

 ------------
 cyanomethane
 ------------
 Symbolic Z-matrix:
 Charge =  0 Multiplicity = 1

                         Standard orientation:
 ---------------------------------------------------------------------
 Center     Atomic      Atomic             Coordinates (Angstroms)
 Number     Number       Type             X           Y           Z
 ---------------------------------------------------------------------
      1          6           0        1.189899    0.012553    0.000933
      2          6           0       -0.278094   -0.013935   -0.068445
      3          7           0       -1.452445    0.007291    0.027978
      4          1           0        1.604593    1.047470   -0.127226
      5          1           0        1.637609   -0.731477   -0.661973
      6          1           0        1.454084   -0.358739    0.998425
 ---------------------------------------------------------------------

 SCF Done:  E(RB2PLYPD3) =  -132.528931469     A.U. after   12 cycles
 E2(B2PLYPD3) =    -0.1829547403D+00 E(B2PLYPD3) =    -0.13271188620908D+03

 The electronic state is 1-A.
 Alpha  occ. eigenvalues --  -14.84949 -10.67787 -10.67114  -1.03192  -0.88748
 Alpha  occ. eigenvalues --   -0.59674  -0.54180  -0.52720  -0.44911  -0.38702
 Alpha  occ. eigenvalues --   -0.38349
 Alpha virt. eigenvalues --    0.03507   0.07122   0.07406   0.10151   0.10897
 Alpha virt. eigenvalues --    0.11497   0.15176   0.15658   0.16986   0.20080
 Alpha virt. eigenvalues --    0.20219   0.25342   0.31977   0.33965   0.34869

 Mulliken charges:
               1
     1  C   -0.086718
     2  C    0.006183
     3  N   -0.215931
     4  H    0.102735
     5  H    0.095602
     6  H    0.098129
 Sum of Mulliken charges =   0.00000

 Dipole moment (field-independent basis, Debye):
    X=              4.1602    Y=             -0.0469    Z=              0.0151  Tot=              4.1605
 Quadrupole moment (field-independent basis, Debye-Ang):
   XX=            -21.0019   YY=            -17.6454   ZZ=            -18.1096
   XY=             -0.0380   XZ=              0.1307   YZ=             -0.0067

 Normal termination of Gaussian 09 at Wed Aug 26 18:16:11 2020.
