 Gaussian 09, Revision D.01,
 Gaussian 09:  ES64L-G09RevD.01 24-Apr-2013

 --------------------
 #p B2PLYPD3/Def2QZVP
 --------------------

 ------------
 cyanomethane
 ------------
 Symbolic Z-matrix:
 Charge =  0 Multiplicity = 1

                         Standard orientation:
 ---------------------------------------------------------------------
 Center     Atomic      Atomic             Coordinates (Angstroms)
 Number     Number       Type             X           Y           Z
 ---------------------------------------------------------------------
      1          6           0       -1.177434   -0.027167   -0.011421
      2          6           0        0.306012    0.018330   -0.064576
      3          7           0        1.437901   -0.000303    0.028723
      4          1           0       -1.688623    1.058291    0.164995
      5          1           0       -1.474752   -0.574599    0.895403
      6          1           0       -1.673399   -0.428548   -0.805479
 ---------------------------------------------------------------------

 SCF Done:  E(RB2PLYPD3) =  -132.521473765     A.U. after   12 cycles
 E2(B2PLYPD3) =    -0.1795082516D+00 E(B2PLYPD3) =    -0.13270098201661D+03

 The electronic state is 1-A.
 Alpha  occ. eigenvalues --  -14.83982 -10.67868 -10.66182  -1.05041  -0.88238
 Alpha  occ. eigenvalues --   -0.60574  -0.54106  -0.50801  -0.44968  -0.39982
 Alpha  occ. eigenvalues --   -0.39387
 Alpha virt. eigenvalues --    0.03337   0.07028   0.08615   0.10290   0.11317
 Alpha virt. eigenvalues --    0.12020   0.15208   0.16627   0.17413   0.19860
 Alpha virt. eigenvalues --    0.20045   0.25050   0.31387   0.33710   0.35035

 Mulliken charges:
               1
     1  C   -0.082032
     2  C    0.005822
     3  N   -0.193878
     4  H    0.078984
     5  H    0.093556
     6  H    0.097548
 Sum of Mulliken charges =   0.00000

 Dipole moment (field-independent basis, Debye):
    X=             -4.0955    Y=             -0.0497    Z=             -0.0276  Tot=              4.0959
 Quadrupole moment (field-independent basis, Debye-Ang):
   XX=            -20.6505   YY=            -17.9247   ZZ=            -17.8373
   XY=             -0.0019   XZ=             -0.1072   YZ=              0.0314

 Normal termination of Gaussian 09 at Wed Aug 26 16:24:11 2020.
