 Gaussian 09, Revision D.01,
 Gaussian 09:  ES64L-G09RevD.01 24-Apr-2013

 --------------------
 #p B2PLYPD3/Def2QZVP
 --------------------

 ------------
 cyanomethane
 ------------
 Symbolic Z-matrix:
 Charge =  0 Multiplicity = 1

                         Standard orientation:
 ---------------------------------------------------------------------
 Center     Atomic      Atomic             Coordinates (Angstroms)
 Number     Number       Type             X           Y           Z
 ---------------------------------------------------------------------
      1          6           0       -1.187003    0.010659    0.016410
      2          6           0        0.274780    0.010861   -0.025025
      3          7           0        1.441032   -0.010941    0.006934
      4          1           0       -1.619620   -0.828713   -0.642541
      5          1           0       -1.507477    0.957337   -0.363991
      6          1           0       -1.486790   -0.181153    1.009685
 ---------------------------------------------------------------------

 SCF Done:  E(RB2PLYPD3) =  -132.530314359     A.U. after   12 cycles
 E2(B2PLYPD3) =    -0.1816194129D+00 E(B2PLYPD3) =    -0.13271193377170D+03

 The electronic state is 1-A.
 Alpha  occ. eigenvalues --  -14.84494 -10.67322 -10.66583  -1.03589  -0.89270
 Alpha  occ. eigenvalues --   -0.59284  -0.55478  -0.52753  -0.44760  -0.38873
 Alpha  occ. eigenvalues --   -0.38603
 Alpha virt. eigenvalues --    0.03663   0.07260   0.08209   0.10159   0.11093
 Alpha virt. eigenvalues --    0.11477   0.15246   0.15943   0.16277   0.20094
 Alpha virt. eigenvalues --    0.20191   0.25259   0.32122   0.33960   0.35230

 Mulliken charges:
               1
     1  C   -0.090709
     2  C   -0.000287
     3  N   -0.212377
     4  H    0.093107
     5  H    0.104566
     6  H    0.105700
 Sum of Mulliken charges =   0.00000

 Dipole moment (field-independent basis, Debye):
    X=             -4.1358    Y=              0.0170    Z=              0.0055  Tot=              4.1359
 Quadrupole moment (field-independent basis, Debye-Ang):
   XX=            -21.1472   YY=            -17.7422   ZZ=            -17.7857
   XY=              0.1323   XZ=              0.0146   YZ=             -0.0890

 Normal termination of Gaussian 09 at Wed Aug 26 10:28:43 2020.
