 Gaussian 09, Revision D.01,
 Gaussian 09:  ES64L-G09RevD.01 24-Apr-2013

 --------------------
 #p B2PLYPD3/Def2QZVP
 --------------------

 ------------
 cyanomethane
 ------------
 Symbolic Z-matrix:
 Charge =  0 Multiplicity = 1

                         Standard orientation:
 ---------------------------------------------------------------------
 Center     Atomic      Atomic             Coordinates (Angstroms)
 Number     Number       Type             X           Y           Z
 ---------------------------------------------------------------------
      1          6           0       -1.175882   -0.001524   -0.024906
      2          6           0        0.277099   -0.017302    0.087382
      3          7           0        1.446782    0.013371   -0.043529
      4          1           0       -1.558231   -0.246031    0.938419
      5          1           0       -1.542723   -0.737350   -0.721304
      6          1           0       -1.633822    1.002740   -0.287268
 ---------------------------------------------------------------------

 SCF Done:  E(RB2PLYPD3) =  -132.527477582     A.U. after   12 cycles
 E2(B2PLYPD3) =    -0.1828724021D+00 E(B2PLYPD3) =    -0.13271034998450D+03

 The electronic state is 1-A.
 Alpha  occ. eigenvalues --  -14.85058 -10.67203 -10.67073  -1.03373  -0.89127
 Alpha  occ. eigenvalues --   -0.60352  -0.54132  -0.52835  -0.45071  -0.38685
 Alpha  occ. eigenvalues --   -0.38508
 Alpha virt. eigenvalues --    0.03367   0.06742   0.07715   0.09906   0.11216
 Alpha virt. eigenvalues --    0.11361   0.15493   0.15546   0.17544   0.20001
 Alpha virt. eigenvalues --    0.20342   0.25905   0.32698   0.34023   0.34910

 Mulliken charges:
               1
     1  C   -0.076750
     2  C    0.008710
     3  N   -0.213843
     4  H    0.091176
     5  H    0.098054
     6  H    0.092654
 Sum of Mulliken charges =   0.00000

 Dipole moment (field-independent basis, Debye):
    X=             -4.1321    Y=             -0.0361    Z=              0.0776  Tot=              4.1329
 Quadrupole moment (field-independent basis, Debye-Ang):
   XX=            -20.8088   YY=            -17.8488   ZZ=            -17.9393
   XY=             -0.1015   XZ=              0.1732   YZ=              0.0501

 Normal termination of Gaussian 09 at Wed Aug 26 18:34:08 2020.
