 Gaussian 09, Revision D.01,
 Gaussian 09:  ES64L-G09RevD.01 24-Apr-2013

 --------------------
 #p B2PLYPD3/Def2QZVP
 --------------------

 ------------
 cyanomethane
 ------------
 Symbolic Z-matrix:
 Charge =  0 Multiplicity = 1

                         Standard orientation:
 ---------------------------------------------------------------------
 Center     Atomic      Atomic             Coordinates (Angstroms)
 Number     Number       Type             X           Y           Z
 ---------------------------------------------------------------------
      1          6           0        1.144074   -0.013035   -0.002453
      2          6           0       -0.266675    0.060290    0.004352
      3          7           0       -1.429499   -0.035549   -0.009386
      4          1           0        1.537293    0.951390   -0.259987
      5          1           0        1.709259   -0.737496   -0.657331
      6          1           0        1.495545   -0.248585    0.971628
 ---------------------------------------------------------------------

 SCF Done:  E(RB2PLYPD3) =  -132.526101273     A.U. after   12 cycles
 E2(B2PLYPD3) =    -0.1819536107D+00 E(B2PLYPD3) =    -0.13270805488354D+03

 The electronic state is 1-A.
 Alpha  occ. eigenvalues --  -14.84695 -10.66628 -10.66522  -1.03903  -0.90051
 Alpha  occ. eigenvalues --   -0.61691  -0.54564  -0.52520  -0.45099  -0.38683
 Alpha  occ. eigenvalues --   -0.38540
 Alpha virt. eigenvalues --    0.03535   0.06568   0.07902   0.09870   0.11456
 Alpha virt. eigenvalues --    0.11820   0.15706   0.15872   0.17759   0.20069
 Alpha virt. eigenvalues --    0.20539   0.26403   0.33188   0.34225   0.34844

 Mulliken charges:
               1
     1  C   -0.066121
     2  C    0.009156
     3  N   -0.211054
     4  H    0.088578
     5  H    0.088318
     6  H    0.091122
 Sum of Mulliken charges =   0.00000

 Dipole moment (field-independent basis, Debye):
    X=              4.1423    Y=              0.0604    Z=              0.0467  Tot=              4.1430
 Quadrupole moment (field-independent basis, Debye-Ang):
   XX=            -20.5964   YY=            -17.8401   ZZ=            -17.9217
   XY=             -0.2529   XZ=             -0.0954   YZ=             -0.0601

 Normal termination of Gaussian 09 at Wed Aug 26 18:30:10 2020.
