 Gaussian 09, Revision D.01,
 Gaussian 09:  ES64L-G09RevD.01 24-Apr-2013

 --------------------
 #p B2PLYPD3/Def2QZVP
 --------------------

 ------------
 cyanomethane
 ------------
 Symbolic Z-matrix:
 Charge =  0 Multiplicity = 1

                         Standard orientation:
 ---------------------------------------------------------------------
 Center     Atomic      Atomic             Coordinates (Angstroms)
 Number     Number       Type             X           Y           Z
 ---------------------------------------------------------------------
      1          6           0        1.157491   -0.030729   -0.001425
      2          6           0       -0.255090    0.015420   -0.049582
      3          7           0       -1.436234   -0.009245    0.019248
      4          1           0        1.493156    1.051116   -0.047113
      5          1           0        1.666353   -0.545126   -0.671481
      6          1           0        1.479718   -0.349421    0.889900
 ---------------------------------------------------------------------

 SCF Done:  E(RB2PLYPD3) =  -132.513041429     A.U. after   12 cycles
 E2(B2PLYPD3) =    -0.1827353632D+00 E(B2PLYPD3) =    -0.13269577679208D+03

 The electronic state is 1-A.
 Alpha  occ. eigenvalues --  -14.84998 -10.67046 -10.65213  -1.03211  -0.91287
 Alpha  occ. eigenvalues --   -0.62962  -0.55944  -0.53425  -0.45031  -0.38526
 Alpha  occ. eigenvalues --   -0.38023
 Alpha virt. eigenvalues --    0.03808   0.07255   0.07695   0.09976   0.11226
 Alpha virt. eigenvalues --    0.11637   0.15548   0.15990   0.17372   0.20269
 Alpha virt. eigenvalues --    0.20330   0.26253   0.32361   0.34150   0.36154

 Mulliken charges:
               1
     1  C   -0.055339
     2  C    0.015252
     3  N   -0.221564
     4  H    0.083369
     5  H    0.088633
     6  H    0.089648
 Sum of Mulliken charges =   0.00000

 Dipole moment (field-independent basis, Debye):
    X=              4.1867    Y=             -0.0007    Z=              0.0204  Tot=              4.1868
 Quadrupole moment (field-independent basis, Debye-Ang):
   XX=            -20.6513   YY=            -17.7323   ZZ=            -17.9214
   XY=             -0.1461   XZ=              0.0897   YZ=              0.0341

 Normal termination of Gaussian 09 at Wed Aug 26 23:57:38 2020.
