 Gaussian 09, Revision D.01,
 Gaussian 09:  ES64L-G09RevD.01 24-Apr-2013

 --------------------
 #p B2PLYPD3/Def2QZVP
 --------------------

 ------------
 cyanomethane
 ------------
 Symbolic Z-matrix:
 Charge =  0 Multiplicity = 1

                         Standard orientation:
 ---------------------------------------------------------------------
 Center     Atomic      Atomic             Coordinates (Angstroms)
 Number     Number       Type             X           Y           Z
 ---------------------------------------------------------------------
      1          6           0        1.181523   -0.021439    0.025917
      2          6           0       -0.300221    0.055084   -0.049835
      3          7           0       -1.444314   -0.025150    0.025695
      4          1           0        1.623014   -0.454387    0.933806
      5          1           0        1.628720    1.055553   -0.094883
      6          1           0        1.570656   -0.626989   -0.875280
 ---------------------------------------------------------------------

 SCF Done:  E(RB2PLYPD3) =  -132.525217591     A.U. after   12 cycles
 E2(B2PLYPD3) =    -0.1810868252D+00 E(B2PLYPD3) =    -0.13270630441592D+03

 The electronic state is 1-A.
 Alpha  occ. eigenvalues --  -14.84365 -10.68893 -10.66508  -1.04467  -0.87398
 Alpha  occ. eigenvalues --   -0.59590  -0.52500  -0.51591  -0.44995  -0.39394
 Alpha  occ. eigenvalues --   -0.39149
 Alpha virt. eigenvalues --    0.03342   0.06951   0.07381   0.09994   0.11546
 Alpha virt. eigenvalues --    0.11576   0.15302   0.15849   0.17488   0.19965
 Alpha virt. eigenvalues --    0.20118   0.25381   0.31825   0.33189   0.34392

 Mulliken charges:
               1
     1  C   -0.095727
     2  C    0.006957
     3  N   -0.199281
     4  H    0.104143
     5  H    0.089645
     6  H    0.094264
 Sum of Mulliken charges =   0.00000

 Dipole moment (field-independent basis, Debye):
    X=              4.0847    Y=              0.0217    Z=             -0.0323  Tot=              4.0849
 Quadrupole moment (field-independent basis, Debye-Ang):
   XX=            -20.9099   YY=            -17.9183   ZZ=            -17.8841
   XY=             -0.1451   XZ=              0.1854   YZ=             -0.0193

 Normal termination of Gaussian 09 at Wed Aug 26 20:46:12 2020.
