 Gaussian 09, Revision D.01,
 Gaussian 09:  ES64L-G09RevD.01 24-Apr-2013

 --------------------
 #p B2PLYPD3/Def2QZVP
 --------------------

 ------------
 cyanomethane
 ------------
 Symbolic Z-matrix:
 Charge =  0 Multiplicity = 1

                         Standard orientation:
 ---------------------------------------------------------------------
 Center     Atomic      Atomic             Coordinates (Angstroms)
 Number     Number       Type             X           Y           Z
 ---------------------------------------------------------------------
      1          6           0        1.142077   -0.007457   -0.006732
      2          6           0       -0.267297   -0.057553   -0.032547
      3          7           0       -1.428760    0.042599    0.014713
      4          1           0        1.484896   -0.848189   -0.526384
      5          1           0        1.529873   -0.051019    1.070525
      6          1           0        1.737875    0.991077   -0.411455
 ---------------------------------------------------------------------

 SCF Done:  E(RB2PLYPD3) =  -132.514285175     A.U. after   13 cycles
 E2(B2PLYPD3) =    -0.1827534717D+00 E(B2PLYPD3) =    -0.13269703864685D+03

 The electronic state is 1-A.
 Alpha  occ. eigenvalues --  -14.84724 -10.68023 -10.66591  -1.03929  -0.89290
 Alpha  occ. eigenvalues --   -0.60458  -0.54741  -0.50751  -0.45105  -0.38718
 Alpha  occ. eigenvalues --   -0.38165
 Alpha virt. eigenvalues --    0.02889   0.05520   0.07916   0.09859   0.11295
 Alpha virt. eigenvalues --    0.12144   0.15486   0.15926   0.17522   0.19951
 Alpha virt. eigenvalues --    0.20511   0.26307   0.31688   0.33227   0.34402

 Mulliken charges:
               1
     1  C   -0.087962
     2  C    0.007367
     3  N   -0.208587
     4  H    0.103899
     5  H    0.093844
     6  H    0.091438
 Sum of Mulliken charges =   0.00000

 Dipole moment (field-independent basis, Debye):
    X=              4.0976    Y=             -0.0929    Z=              0.0218  Tot=              4.0987
 Quadrupole moment (field-independent basis, Debye-Ang):
   XX=            -20.8444   YY=            -17.8215   ZZ=            -17.9837
   XY=              0.3546   XZ=              0.1304   YZ=              0.1292

 Normal termination of Gaussian 09 at Wed Aug 26 21:38:16 2020.
