 Gaussian 09, Revision D.01,
 Gaussian 09:  ES64L-G09RevD.01 24-Apr-2013

 --------------------
 #p B2PLYPD3/Def2QZVP
 --------------------

 ------------
 cyanomethane
 ------------
 Symbolic Z-matrix:
 Charge =  0 Multiplicity = 1

                         Standard orientation:
 ---------------------------------------------------------------------
 Center     Atomic      Atomic             Coordinates (Angstroms)
 Number     Number       Type             X           Y           Z
 ---------------------------------------------------------------------
      1          6           0       -1.178160   -0.015153   -0.008762
      2          6           0        0.274710    0.009911    0.034686
      3          7           0        1.428546   -0.003171   -0.023352
      4          1           0       -1.442291   -0.282928    0.939679
      5          1           0       -1.585101   -0.673311   -0.714981
      6          1           0       -1.551728    1.009888   -0.216776
 ---------------------------------------------------------------------

 SCF Done:  E(RB2PLYPD3) =  -132.529404141     A.U. after   12 cycles
 E2(B2PLYPD3) =    -0.1802787435D+00 E(B2PLYPD3) =    -0.13270968288468D+03

 The electronic state is 1-A.
 Alpha  occ. eigenvalues --  -14.84150 -10.66195 -10.66132  -1.04084  -0.90143
 Alpha  occ. eigenvalues --   -0.60000  -0.55574  -0.53822  -0.44743  -0.39124
 Alpha  occ. eigenvalues --   -0.38950
 Alpha virt. eigenvalues --    0.03827   0.07733   0.08843   0.10101   0.11302
 Alpha virt. eigenvalues --    0.11514   0.15435   0.15571   0.17066   0.20092
 Alpha virt. eigenvalues --    0.20174   0.25521   0.32849   0.34549   0.35510

 Mulliken charges:
               1
     1  C   -0.081053
     2  C   -0.000880
     3  N   -0.208173
     4  H    0.099842
     5  H    0.097608
     6  H    0.092656
 Sum of Mulliken charges =   0.00000

 Dipole moment (field-independent basis, Debye):
    X=             -4.1218    Y=             -0.0044    Z=              0.0530  Tot=              4.1221
 Quadrupole moment (field-independent basis, Debye-Ang):
   XX=            -20.9906   YY=            -17.6823   ZZ=            -17.7021
   XY=              0.0256   XZ=              0.1873   YZ=              0.0095

 Normal termination of Gaussian 09 at Wed Aug 26 11:31:57 2020.
