 Gaussian 09, Revision D.01,
 Gaussian 09:  ES64L-G09RevD.01 24-Apr-2013

 --------------------
 #p B2PLYPD3/Def2QZVP
 --------------------

 ------------
 cyanomethane
 ------------
 Symbolic Z-matrix:
 Charge =  0 Multiplicity = 1

                         Standard orientation:
 ---------------------------------------------------------------------
 Center     Atomic      Atomic             Coordinates (Angstroms)
 Number     Number       Type             X           Y           Z
 ---------------------------------------------------------------------
      1          6           0        1.172086   -0.000917   -0.007100
      2          6           0       -0.274563   -0.013020   -0.012162
      3          7           0       -1.435013    0.008432    0.010494
      4          1           0        1.513039   -0.886232   -0.493558
      5          1           0        1.598903    0.012310    1.038499
      6          1           0        1.548009    0.898519   -0.502827
 ---------------------------------------------------------------------

 SCF Done:  E(RB2PLYPD3) =  -132.533196711     A.U. after   11 cycles
 E2(B2PLYPD3) =    -0.1811388716D+00 E(B2PLYPD3) =    -0.13271433558251D+03

 The electronic state is 1-A.
 Alpha  occ. eigenvalues --  -14.84380 -10.67235 -10.66417  -1.03903  -0.89303
 Alpha  occ. eigenvalues --   -0.59904  -0.54731  -0.52877  -0.44842  -0.38947
 Alpha  occ. eigenvalues --   -0.38749
 Alpha virt. eigenvalues --    0.03679   0.07256   0.08046   0.10137   0.11299
 Alpha virt. eigenvalues --    0.11618   0.15449   0.16111   0.16571   0.20069
 Alpha virt. eigenvalues --    0.20180   0.25540   0.32658   0.34084   0.34914

 Mulliken charges:
               1
     1  C   -0.083790
     2  C    0.000373
     3  N   -0.208930
     4  H    0.100780
     5  H    0.093081
     6  H    0.098486
 Sum of Mulliken charges =   0.00000

 Dipole moment (field-independent basis, Debye):
    X=              4.1307    Y=             -0.0121    Z=             -0.0167  Tot=              4.1308
 Quadrupole moment (field-independent basis, Debye-Ang):
   XX=            -21.0001   YY=            -17.7116   ZZ=            -17.8472
   XY=              0.0725   XZ=              0.1163   YZ=              0.0207

 Normal termination of Gaussian 09 at Wed Aug 26 10:07:55 2020.
