 Gaussian 09, Revision D.01,
 Gaussian 09:  ES64L-G09RevD.01 24-Apr-2013

 --------------------
 #p B2PLYPD3/Def2QZVP
 --------------------

 ------------
 cyanomethane
 ------------
 Symbolic Z-matrix:
 Charge =  0 Multiplicity = 1

                         Standard orientation:
 ---------------------------------------------------------------------
 Center     Atomic      Atomic             Coordinates (Angstroms)
 Number     Number       Type             X           Y           Z
 ---------------------------------------------------------------------
      1          6           0       -1.176624    0.000266   -0.000166
      2          6           0        0.272145    0.007268    0.020179
      3          7           0        1.430451   -0.002756   -0.010703
      4          1           0       -1.524300   -0.150678    0.997592
      5          1           0       -1.519327   -0.840695   -0.640013
      6          1           0       -1.542655    0.965457   -0.402738
 ---------------------------------------------------------------------

 SCF Done:  E(RB2PLYPD3) =  -132.534170988     A.U. after   11 cycles
 E2(B2PLYPD3) =    -0.1808840095D+00 E(B2PLYPD3) =    -0.13271505499780D+03

 The electronic state is 1-A.
 Alpha  occ. eigenvalues --  -14.84206 -10.67253 -10.66241  -1.03914  -0.89354
 Alpha  occ. eigenvalues --   -0.59333  -0.54439  -0.53769  -0.44719  -0.38892
 Alpha  occ. eigenvalues --   -0.38806
 Alpha virt. eigenvalues --    0.03700   0.07599   0.08087   0.10155   0.11376
 Alpha virt. eigenvalues --    0.11519   0.15384   0.15920   0.16288   0.20111
 Alpha virt. eigenvalues --    0.20140   0.25481   0.32711   0.34191   0.34625

 Mulliken charges:
               1
     1  C   -0.093167
     2  C   -0.001291
     3  N   -0.209095
     4  H    0.101698
     5  H    0.100587
     6  H    0.101267
 Sum of Mulliken charges =   0.00000

 Dipole moment (field-independent basis, Debye):
    X=             -4.1175    Y=             -0.0036    Z=              0.0247  Tot=              4.1176
 Quadrupole moment (field-independent basis, Debye-Ang):
   XX=            -21.1829   YY=            -17.6736   ZZ=            -17.7523
   XY=              0.0145   XZ=              0.0371   YZ=             -0.0154

 Normal termination of Gaussian 09 at Thu Aug 27 00:07:40 2020.
