 Gaussian 09, Revision D.01,
 Gaussian 09:  ES64L-G09RevD.01 24-Apr-2013

 --------------------
 #p B2PLYPD3/Def2QZVP
 --------------------

 ------------
 cyanomethane
 ------------
 Symbolic Z-matrix:
 Charge =  0 Multiplicity = 1

                         Standard orientation:
 ---------------------------------------------------------------------
 Center     Atomic      Atomic             Coordinates (Angstroms)
 Number     Number       Type             X           Y           Z
 ---------------------------------------------------------------------
      1          6           0        1.180566    0.003701    0.000820
      2          6           0       -0.281028    0.010729   -0.005517
      3          7           0       -1.429156   -0.003107    0.001278
      4          1           0        1.529310   -0.624804   -0.811523
      5          1           0        1.500517   -0.434066    0.933045
      6          1           0        1.577037    0.994039   -0.102284
 ---------------------------------------------------------------------

 SCF Done:  E(RB2PLYPD3) =  -132.536056175     A.U. after   11 cycles
 E2(B2PLYPD3) =    -0.1797534689D+00 E(B2PLYPD3) =    -0.13271580964386D+03

 The electronic state is 1-A.
 Alpha  occ. eigenvalues --  -14.83944 -10.66816 -10.66004  -1.04319  -0.89425
 Alpha  occ. eigenvalues --   -0.59465  -0.54510  -0.54051  -0.44693  -0.39280
 Alpha  occ. eigenvalues --   -0.39158
 Alpha virt. eigenvalues --    0.03826   0.08216   0.08289   0.10217   0.11402
 Alpha virt. eigenvalues --    0.11563   0.15387   0.16061   0.16497   0.20049
 Alpha virt. eigenvalues --    0.20097   0.25258   0.32845   0.34550   0.35060

 Mulliken charges:
               1
     1  C   -0.085432
     2  C   -0.004176
     3  N   -0.203709
     4  H    0.096885
     5  H    0.098005
     6  H    0.098427
 Sum of Mulliken charges =   0.00000

 Dipole moment (field-independent basis, Debye):
    X=              4.1197    Y=             -0.0063    Z=              0.0022  Tot=              4.1197
 Quadrupole moment (field-independent basis, Debye-Ang):
   XX=            -21.0473   YY=            -17.6627   ZZ=            -17.7254
   XY=              0.0071   XZ=             -0.0106   YZ=             -0.0079

 Normal termination of Gaussian 09 at Thu Aug 27 00:11:43 2020.
