 Gaussian 09, Revision D.01,
 Gaussian 09:  ES64L-G09RevD.01 24-Apr-2013

 --------------------
 #p B2PLYPD3/Def2QZVP
 --------------------

 ------------
 cyanomethane
 ------------
 Symbolic Z-matrix:
 Charge =  0 Multiplicity = 1

                         Standard orientation:
 ---------------------------------------------------------------------
 Center     Atomic      Atomic             Coordinates (Angstroms)
 Number     Number       Type             X           Y           Z
 ---------------------------------------------------------------------
      1          6           0        1.211643    0.031862   -0.003662
      2          6           0       -0.271670    0.001011   -0.069343
      3          7           0       -1.449995   -0.010749    0.029884
      4          1           0        1.397054    0.976363    0.132813
      5          1           0        1.628875   -0.504126   -0.768424
      6          1           0        1.484202   -0.594232    0.864456
 ---------------------------------------------------------------------

 SCF Done:  E(RB2PLYPD3) =  -132.512603825     A.U. after   12 cycles
 E2(B2PLYPD3) =    -0.1826117382D+00 E(B2PLYPD3) =    -0.13269521556319D+03

 The electronic state is 1-A.
 Alpha  occ. eigenvalues --  -14.84848 -10.67011 -10.65881  -1.02919  -0.90558
 Alpha  occ. eigenvalues --   -0.59829  -0.58190  -0.52797  -0.44657  -0.38752
 Alpha  occ. eigenvalues --   -0.38181
 Alpha virt. eigenvalues --    0.03666   0.07750   0.08709   0.10244   0.10449
 Alpha virt. eigenvalues --    0.11335   0.14975   0.15602   0.16282   0.20091
 Alpha virt. eigenvalues --    0.20300   0.24925   0.32316   0.33459   0.36745

 Mulliken charges:
               1
     1  C   -0.081345
     2  C    0.000693
     3  N   -0.221439
     4  H    0.114592
     5  H    0.097076
     6  H    0.090422
 Sum of Mulliken charges =   0.00000

 Dipole moment (field-independent basis, Debye):
    X=              4.1816    Y=             -0.0407    Z=             -0.0131  Tot=              4.1818
 Quadrupole moment (field-independent basis, Debye-Ang):
   XX=            -21.0836   YY=            -17.4866   ZZ=            -18.0154
   XY=             -0.3277   XZ=              0.0908   YZ=              0.0951

 Normal termination of Gaussian 09 at Wed Aug 26 22:42:24 2020.
