 Gaussian 09, Revision D.01,
 Gaussian 09:  ES64L-G09RevD.01 24-Apr-2013

 --------------------
 #p B2PLYPD3/Def2QZVP
 --------------------

 ------------
 cyanomethane
 ------------
 Symbolic Z-matrix:
 Charge =  0 Multiplicity = 1

                         Standard orientation:
 ---------------------------------------------------------------------
 Center     Atomic      Atomic             Coordinates (Angstroms)
 Number     Number       Type             X           Y           Z
 ---------------------------------------------------------------------
      1          6           0       -1.189747   -0.019675   -0.009642
      2          6           0        0.288599    0.030612   -0.010633
      3          7           0        1.430440   -0.013632    0.006420
      4          1           0       -1.532559   -0.090595    0.989277
      5          1           0       -1.530675   -0.815525   -0.539635
      6          1           0       -1.542964    0.935925   -0.372930
 ---------------------------------------------------------------------

 SCF Done:  E(RB2PLYPD3) =  -132.531583202     A.U. after   11 cycles
 E2(B2PLYPD3) =    -0.1790511311D+00 E(B2PLYPD3) =    -0.13271063433307D+03

 The electronic state is 1-A.
 Alpha  occ. eigenvalues --  -14.83821 -10.66145 -10.65896  -1.04515  -0.89770
 Alpha  occ. eigenvalues --   -0.59606  -0.55790  -0.53646  -0.44668  -0.39636
 Alpha  occ. eigenvalues --   -0.39331
 Alpha virt. eigenvalues --    0.03918   0.08566   0.08803   0.10204   0.11237
 Alpha virt. eigenvalues --    0.11575   0.15364   0.15967   0.16807   0.19970
 Alpha virt. eigenvalues --    0.20101   0.25025   0.32850   0.34571   0.35845

 Mulliken charges:
               1
     1  C   -0.075967
     2  C   -0.005720
     3  N   -0.201053
     4  H    0.090443
     5  H    0.099719
     6  H    0.092577
 Sum of Mulliken charges =   0.00000

 Dipole moment (field-independent basis, Debye):
    X=             -4.1236    Y=              0.0232    Z=              0.0195  Tot=              4.1237
 Quadrupole moment (field-independent basis, Debye-Ang):
   XX=            -20.9391   YY=            -17.5486   ZZ=            -17.7861
   XY=              0.0618   XZ=             -0.1072   YZ=              0.0639

 Normal termination of Gaussian 09 at Wed Aug 26 14:29:35 2020.
