 Gaussian 09, Revision D.01,
 Gaussian 09:  ES64L-G09RevD.01 24-Apr-2013

 --------------------
 #p B2PLYPD3/Def2QZVP
 --------------------

 ------------
 cyanomethane
 ------------
 Symbolic Z-matrix:
 Charge =  0 Multiplicity = 1

                         Standard orientation:
 ---------------------------------------------------------------------
 Center     Atomic      Atomic             Coordinates (Angstroms)
 Number     Number       Type             X           Y           Z
 ---------------------------------------------------------------------
      1          6           0       -1.191566   -0.020304    0.003936
      2          6           0        0.285238    0.028668    0.019530
      3          7           0        1.439501   -0.016020   -0.010875
      4          1           0       -1.577182   -0.701017   -0.743213
      5          1           0       -1.507240    1.009360   -0.285025
      6          1           0       -1.554118   -0.246389    0.963561
 ---------------------------------------------------------------------

 SCF Done:  E(RB2PLYPD3) =  -132.533003954     A.U. after   12 cycles
 E2(B2PLYPD3) =    -0.1805401440D+00 E(B2PLYPD3) =    -0.13271354409764D+03

 The electronic state is 1-A.
 Alpha  occ. eigenvalues --  -14.84222 -10.67144 -10.66342  -1.04024  -0.89082
 Alpha  occ. eigenvalues --   -0.59412  -0.54891  -0.53162  -0.44741  -0.39264
 Alpha  occ. eigenvalues --   -0.38944
 Alpha virt. eigenvalues --    0.03730   0.07815   0.08376   0.10154   0.11171
 Alpha virt. eigenvalues --    0.11495   0.15277   0.15641   0.16931   0.20068
 Alpha virt. eigenvalues --    0.20117   0.25073   0.32519   0.33911   0.35418

 Mulliken charges:
               1
     1  C   -0.087129
     2  C   -0.001323
     3  N   -0.206698
     4  H    0.099742
     5  H    0.093897
     6  H    0.101510
 Sum of Mulliken charges =   0.00000

 Dipole moment (field-independent basis, Debye):
    X=             -4.1313    Y=              0.0316    Z=              0.0112  Tot=              4.1314
 Quadrupole moment (field-independent basis, Debye-Ang):
   XX=            -21.0444   YY=            -17.8013   ZZ=            -17.6948
   XY=              0.1169   XZ=              0.0734   YZ=              0.0019

 Normal termination of Gaussian 09 at Wed Aug 26 12:23:24 2020.
