 Gaussian 09, Revision D.01,
 Gaussian 09:  ES64L-G09RevD.01 24-Apr-2013

 --------------------
 #p B2PLYPD3/Def2QZVP
 --------------------

 ------------
 cyanomethane
 ------------
 Symbolic Z-matrix:
 Charge =  0 Multiplicity = 1

                         Standard orientation:
 ---------------------------------------------------------------------
 Center     Atomic      Atomic             Coordinates (Angstroms)
 Number     Number       Type             X           Y           Z
 ---------------------------------------------------------------------
      1          6           0       -1.183254    0.021956   -0.004003
      2          6           0        0.272805   -0.022095   -0.000681
      3          7           0        1.441334    0.006932   -0.000663
      4          1           0       -1.525392   -0.119013    1.001241
      5          1           0       -1.579098   -0.862852   -0.570043
      6          1           0       -1.522156    0.934180   -0.398459
 ---------------------------------------------------------------------

 SCF Done:  E(RB2PLYPD3) =  -132.531826678     A.U. after   12 cycles
 E2(B2PLYPD3) =    -0.1816489980D+00 E(B2PLYPD3) =    -0.13271347567612D+03

 The electronic state is 1-A.
 Alpha  occ. eigenvalues --  -14.84563 -10.66944 -10.66644  -1.03534  -0.89539
 Alpha  occ. eigenvalues --   -0.59775  -0.55382  -0.53138  -0.44804  -0.38859
 Alpha  occ. eigenvalues --   -0.38552
 Alpha virt. eigenvalues --    0.03762   0.07533   0.07965   0.10133   0.11123
 Alpha virt. eigenvalues --    0.11455   0.15347   0.15815   0.16592   0.20102
 Alpha virt. eigenvalues --    0.20216   0.25380   0.32433   0.34067   0.35355

 Mulliken charges:
               1
     1  C   -0.082255
     2  C    0.000656
     3  N   -0.213510
     4  H    0.096641
     5  H    0.093725
     6  H    0.104743
 Sum of Mulliken charges =   0.00000

 Dipole moment (field-independent basis, Debye):
    X=             -4.1501    Y=             -0.0172    Z=              0.0284  Tot=              4.1503
 Quadrupole moment (field-independent basis, Debye-Ang):
   XX=            -21.0482   YY=            -17.6519   ZZ=            -17.8949
   XY=              0.0329   XZ=             -0.0389   YZ=             -0.0699

 Normal termination of Gaussian 09 at Wed Aug 26 16:16:14 2020.
