 Gaussian 09, Revision D.01,
 Gaussian 09:  ES64L-G09RevD.01 24-Apr-2013

 --------------------
 #p B2PLYPD3/Def2QZVP
 --------------------

 ------------
 cyanomethane
 ------------
 Symbolic Z-matrix:
 Charge =  0 Multiplicity = 1

                         Standard orientation:
 ---------------------------------------------------------------------
 Center     Atomic      Atomic             Coordinates (Angstroms)
 Number     Number       Type             X           Y           Z
 ---------------------------------------------------------------------
      1          6           0        1.166059   -0.007441   -0.004034
      2          6           0       -0.277752   -0.017378   -0.001034
      3          7           0       -1.430675    0.009490   -0.001928
      4          1           0        1.569288    0.975918   -0.330650
      5          1           0        1.593341   -0.750085   -0.620072
      6          1           0        1.522253   -0.143350    0.994623
 ---------------------------------------------------------------------

 SCF Done:  E(RB2PLYPD3) =  -132.534226003     A.U. after   11 cycles
 E2(B2PLYPD3) =    -0.1802683210D+00 E(B2PLYPD3) =    -0.13271449432390D+03

 The electronic state is 1-A.
 Alpha  occ. eigenvalues --  -14.84205 -10.66611 -10.66228  -1.04245  -0.89656
 Alpha  occ. eigenvalues --   -0.60595  -0.54609  -0.53286  -0.44872  -0.39201
 Alpha  occ. eigenvalues --   -0.38979
 Alpha virt. eigenvalues --    0.03787   0.07679   0.08168   0.10161   0.11404
 Alpha virt. eigenvalues --    0.11679   0.15577   0.16267   0.16870   0.20059
 Alpha virt. eigenvalues --    0.20134   0.25612   0.32957   0.34350   0.35281

 Mulliken charges:
               1
     1  C   -0.071343
     2  C    0.000575
     3  N   -0.205570
     4  H    0.089553
     5  H    0.094398
     6  H    0.092387
 Sum of Mulliken charges =   0.00000

 Dipole moment (field-independent basis, Debye):
    X=              4.1335    Y=             -0.0131    Z=              0.0194  Tot=              4.1336
 Quadrupole moment (field-independent basis, Debye-Ang):
   XX=            -20.8132   YY=            -17.7594   ZZ=            -17.7829
   XY=              0.0517   XZ=             -0.0216   YZ=              0.0418

 Normal termination of Gaussian 09 at Thu Aug 27 00:00:27 2020.
