 Gaussian 09, Revision D.01,
 Gaussian 09:  ES64L-G09RevD.01 24-Apr-2013

 --------------------
 #p B2PLYPD3/Def2QZVP
 --------------------

 ------------
 cyanomethane
 ------------
 Symbolic Z-matrix:
 Charge =  0 Multiplicity = 1

                         Standard orientation:
 ---------------------------------------------------------------------
 Center     Atomic      Atomic             Coordinates (Angstroms)
 Number     Number       Type             X           Y           Z
 ---------------------------------------------------------------------
      1          6           0       -1.176901    0.000181   -0.005103
      2          6           0        0.277405    0.010272    0.002366
      3          7           0        1.431114   -0.004868    0.000943
      4          1           0       -1.562723   -0.043597    1.010231
      5          1           0       -1.522201   -0.891318   -0.528808
      6          1           0       -1.535902    0.906272   -0.471603
 ---------------------------------------------------------------------

 SCF Done:  E(RB2PLYPD3) =  -132.535722086     A.U. after   11 cycles
 E2(B2PLYPD3) =    -0.1803348041D+00 E(B2PLYPD3) =    -0.13271605688990D+03

 The electronic state is 1-A.
 Alpha  occ. eigenvalues --  -14.84119 -10.66990 -10.66166  -1.04124  -0.89382
 Alpha  occ. eigenvalues --   -0.59621  -0.54552  -0.53672  -0.44744  -0.39098
 Alpha  occ. eigenvalues --   -0.38993
 Alpha virt. eigenvalues --    0.03784   0.07910   0.08095   0.10184   0.11385
 Alpha virt. eigenvalues --    0.11556   0.15400   0.16249   0.16306   0.20063
 Alpha virt. eigenvalues --    0.20129   0.25392   0.32808   0.34472   0.34854

 Mulliken charges:
               1
     1  C   -0.085230
     2  C   -0.002313
     3  N   -0.206308
     4  H    0.095262
     5  H    0.099041
     6  H    0.099548
 Sum of Mulliken charges =   0.00000

 Dipole moment (field-independent basis, Debye):
    X=             -4.1240    Y=              0.0037    Z=              0.0111  Tot=              4.1240
 Quadrupole moment (field-independent basis, Debye-Ang):
   XX=            -21.0503   YY=            -17.6392   ZZ=            -17.8062
   XY=              0.0254   XZ=             -0.0663   YZ=             -0.0076

 Normal termination of Gaussian 09 at Thu Aug 27 00:02:57 2020.
