 Gaussian 09, Revision D.01,
 Gaussian 09:  ES64L-G09RevD.01 24-Apr-2013

 --------------------
 #p B2PLYPD3/Def2QZVP
 --------------------

 ------------
 cyanomethane
 ------------
 Symbolic Z-matrix:
 Charge =  0 Multiplicity = 1

                         Standard orientation:
 ---------------------------------------------------------------------
 Center     Atomic      Atomic             Coordinates (Angstroms)
 Number     Number       Type             X           Y           Z
 ---------------------------------------------------------------------
      1          6           0        1.176436   -0.001993   -0.004325
      2          6           0       -0.274310    0.023331    0.007331
      3          7           0       -1.431056   -0.012769   -0.005774
      4          1           0        1.532471    1.007042   -0.237907
      5          1           0        1.565062   -0.737482   -0.741278
      6          1           0        1.507112   -0.308206    1.001573
 ---------------------------------------------------------------------

 SCF Done:  E(RB2PLYPD3) =  -132.534221676     A.U. after   12 cycles
 E2(B2PLYPD3) =    -0.1808860906D+00 E(B2PLYPD3) =    -0.13271510776616D+03

 The electronic state is 1-A.
 Alpha  occ. eigenvalues --  -14.84194 -10.67496 -10.66237  -1.03976  -0.89117
 Alpha  occ. eigenvalues --   -0.59276  -0.54217  -0.53515  -0.44735  -0.38925
 Alpha  occ. eigenvalues --   -0.38837
 Alpha virt. eigenvalues --    0.03670   0.07535   0.07975   0.10140   0.11397
 Alpha virt. eigenvalues --    0.11562   0.15378   0.15820   0.16471   0.20085
 Alpha virt. eigenvalues --    0.20146   0.25467   0.32676   0.34152   0.34501

 Mulliken charges:
               1
     1  C   -0.094953
     2  C   -0.000854
     3  N   -0.207927
     4  H    0.102130
     5  H    0.100856
     6  H    0.100748
 Sum of Mulliken charges =   0.00000

 Dipole moment (field-independent basis, Debye):
    X=              4.1133    Y=              0.0127    Z=              0.0164  Tot=              4.1133
 Quadrupole moment (field-independent basis, Debye-Ang):
   XX=            -21.1798   YY=            -17.6842   ZZ=            -17.7702
   XY=             -0.0964   XZ=             -0.0539   YZ=             -0.0121

 Normal termination of Gaussian 09 at Wed Aug 26 09:48:48 2020.
