 Gaussian 09, Revision D.01,
 Gaussian 09:  ES64L-G09RevD.01 24-Apr-2013

 --------------------
 #p B2PLYPD3/Def2QZVP
 --------------------

 ------------
 cyanomethane
 ------------
 Symbolic Z-matrix:
 Charge =  0 Multiplicity = 1

                         Standard orientation:
 ---------------------------------------------------------------------
 Center     Atomic      Atomic             Coordinates (Angstroms)
 Number     Number       Type             X           Y           Z
 ---------------------------------------------------------------------
      1          6           0       -1.184315    0.021095    0.007449
      2          6           0        0.298318   -0.010630   -0.043197
      3          7           0        1.432796    0.002749    0.020630
      4          1           0       -1.563453    1.036647    0.018458
      5          1           0       -1.556223   -0.556164    0.914758
      6          1           0       -1.593911   -0.562511   -0.863142
 ---------------------------------------------------------------------

 SCF Done:  E(RB2PLYPD3) =  -132.532221127     A.U. after   12 cycles
 E2(B2PLYPD3) =    -0.1793772354D+00 E(B2PLYPD3) =    -0.13271159836251D+03

 The electronic state is 1-A.
 Alpha  occ. eigenvalues --  -14.83761 -10.68113 -10.65879  -1.04837  -0.88054
 Alpha  occ. eigenvalues --   -0.58998  -0.54131  -0.51972  -0.44744  -0.39756
 Alpha  occ. eigenvalues --   -0.39367
 Alpha virt. eigenvalues --    0.03552   0.07744   0.08200   0.10204   0.11422
 Alpha virt. eigenvalues --    0.11813   0.15215   0.16052   0.17035   0.19904
 Alpha virt. eigenvalues --    0.20027   0.25041   0.32422   0.33530   0.35009

 Mulliken charges:
               1
     1  C   -0.094589
     2  C   -0.003558
     3  N   -0.194555
     4  H    0.104643
     5  H    0.094984
     6  H    0.093076
 Sum of Mulliken charges =   0.00000

 Dipole moment (field-independent basis, Debye):
    X=             -4.0945    Y=             -0.0230    Z=             -0.0300  Tot=              4.0947
 Quadrupole moment (field-independent basis, Debye-Ang):
   XX=            -21.0182   YY=            -17.6036   ZZ=            -17.9120
   XY=              0.0479   XZ=             -0.1059   YZ=              0.0026

 Normal termination of Gaussian 09 at Wed Aug 26 12:22:29 2020.
