 Gaussian 09, Revision D.01,
 Gaussian 09:  ES64L-G09RevD.01 24-Apr-2013

 --------------------
 #p B2PLYPD3/Def2QZVP
 --------------------

 ------------
 cyanomethane
 ------------
 Symbolic Z-matrix:
 Charge =  0 Multiplicity = 1

                         Standard orientation:
 ---------------------------------------------------------------------
 Center     Atomic      Atomic             Coordinates (Angstroms)
 Number     Number       Type             X           Y           Z
 ---------------------------------------------------------------------
      1          6           0        1.162880   -0.006301   -0.007258
      2          6           0       -0.269664    0.022869    0.008906
      3          7           0       -1.437287   -0.011285    0.000338
      4          1           0        1.622972   -0.206993    1.008284
      5          1           0        1.548371    0.990974   -0.341815
      6          1           0        1.530369   -0.804397   -0.678729
 ---------------------------------------------------------------------

 SCF Done:  E(RB2PLYPD3) =  -132.530951585     A.U. after   12 cycles
 E2(B2PLYPD3) =    -0.1821341933D+00 E(B2PLYPD3) =    -0.13271308577799D+03

 The electronic state is 1-A.
 Alpha  occ. eigenvalues --  -14.84631 -10.67811 -10.66647  -1.03682  -0.89024
 Alpha  occ. eigenvalues --   -0.60163  -0.53799  -0.52673  -0.44942  -0.38640
 Alpha  occ. eigenvalues --   -0.38522
 Alpha virt. eigenvalues --    0.03587   0.06871   0.07275   0.10077   0.11439
 Alpha virt. eigenvalues --    0.11619   0.15473   0.16177   0.16593   0.20109
 Alpha virt. eigenvalues --    0.20200   0.25804   0.32512   0.33901   0.34377

 Mulliken charges:
               1
     1  C   -0.086681
     2  C    0.004111
     3  N   -0.211337
     4  H    0.094484
     5  H    0.098228
     6  H    0.101196
 Sum of Mulliken charges =   0.00000

 Dipole moment (field-independent basis, Debye):
    X=              4.1333    Y=              0.0089    Z=             -0.0001  Tot=              4.1333
 Quadrupole moment (field-independent basis, Debye-Ang):
   XX=            -20.9929   YY=            -17.7635   ZZ=            -17.9215
   XY=             -0.0738   XZ=              0.0805   YZ=              0.0225

 Normal termination of Gaussian 09 at Wed Aug 26 12:23:04 2020.
