 Gaussian 09, Revision D.01,
 Gaussian 09:  ES64L-G09RevD.01 24-Apr-2013

 --------------------
 #p B2PLYPD3/Def2QZVP
 --------------------

 ------------
 cyanomethane
 ------------
 Symbolic Z-matrix:
 Charge =  0 Multiplicity = 1

                         Standard orientation:
 ---------------------------------------------------------------------
 Center     Atomic      Atomic             Coordinates (Angstroms)
 Number     Number       Type             X           Y           Z
 ---------------------------------------------------------------------
      1          6           0       -1.177580    0.001488    0.005677
      2          6           0        0.284316   -0.001563   -0.024663
      3          7           0        1.439016   -0.005207    0.005708
      4          1           0       -1.526191    1.000924   -0.297173
      5          1           0       -1.495125   -0.193373    1.010579
      6          1           0       -1.692213   -0.770652   -0.639449
 ---------------------------------------------------------------------

 SCF Done:  E(RB2PLYPD3) =  -132.532923963     A.U. after   12 cycles
 E2(B2PLYPD3) =    -0.1807480615D+00 E(B2PLYPD3) =    -0.13271367202407D+03

 The electronic state is 1-A.
 Alpha  occ. eigenvalues --  -14.84295 -10.67508 -10.66408  -1.04139  -0.88877
 Alpha  occ. eigenvalues --   -0.59860  -0.54040  -0.52787  -0.44859  -0.39097
 Alpha  occ. eigenvalues --   -0.39053
 Alpha virt. eigenvalues --    0.03679   0.07317   0.08048   0.10209   0.11429
 Alpha virt. eigenvalues --    0.11566   0.15330   0.16039   0.16977   0.20056
 Alpha virt. eigenvalues --    0.20125   0.25291   0.32326   0.34449   0.34688

 Mulliken charges:
               1
     1  C   -0.084304
     2  C    0.001197
     3  N   -0.205623
     4  H    0.097322
     5  H    0.098798
     6  H    0.092609
 Sum of Mulliken charges =   0.00000

 Dipole moment (field-independent basis, Debye):
    X=             -4.1337    Y=              0.0121    Z=              0.0219  Tot=              4.1338
 Quadrupole moment (field-independent basis, Debye-Ang):
   XX=            -20.9019   YY=            -17.7577   ZZ=            -17.8757
   XY=              0.1204   XZ=              0.0122   YZ=             -0.0391

 Normal termination of Gaussian 09 at Wed Aug 26 15:16:48 2020.
