 Gaussian 09, Revision D.01,
 Gaussian 09:  ES64L-G09RevD.01 24-Apr-2013

 --------------------
 #p B2PLYPD3/Def2QZVP
 --------------------

 ------------
 cyanomethane
 ------------
 Symbolic Z-matrix:
 Charge =  0 Multiplicity = 1

                         Standard orientation:
 ---------------------------------------------------------------------
 Center     Atomic      Atomic             Coordinates (Angstroms)
 Number     Number       Type             X           Y           Z
 ---------------------------------------------------------------------
      1          6           0       -1.175016    0.046813    0.008295
      2          6           0        0.255252   -0.018543    0.047982
      3          7           0        1.434482    0.008181   -0.031583
      4          1           0       -1.416189   -0.376994    0.930550
      5          1           0       -1.539732   -0.825488   -0.764654
      6          1           0       -1.566869    0.975600   -0.282477
 ---------------------------------------------------------------------

 SCF Done:  E(RB2PLYPD3) =  -132.513559601     A.U. after   12 cycles
 E2(B2PLYPD3) =    -0.1835370449D+00 E(B2PLYPD3) =    -0.13269709664606D+03

 The electronic state is 1-A.
 Alpha  occ. eigenvalues --  -14.84794 -10.67449 -10.66844  -1.03069  -0.89958
 Alpha  occ. eigenvalues --   -0.59879  -0.56812  -0.51428  -0.44779  -0.38478
 Alpha  occ. eigenvalues --   -0.37634
 Alpha virt. eigenvalues --    0.03199   0.06422   0.08183   0.09807   0.10958
 Alpha virt. eigenvalues --    0.11760   0.14794   0.15408   0.17096   0.20121
 Alpha virt. eigenvalues --    0.20396   0.25848   0.30968   0.33294   0.35900

 Mulliken charges:
               1
     1  C   -0.102628
     2  C    0.008034
     3  N   -0.221164
     4  H    0.108933
     5  H    0.090131
     6  H    0.116693
 Sum of Mulliken charges =   0.00000

 Dipole moment (field-independent basis, Debye):
    X=             -4.1232    Y=             -0.0330    Z=              0.0667  Tot=              4.1239
 Quadrupole moment (field-independent basis, Debye-Ang):
   XX=            -21.3601   YY=            -17.5622   ZZ=            -17.9731
   XY=             -0.0215   XZ=              0.2112   YZ=             -0.2013

 Normal termination of Gaussian 09 at Wed Aug 26 23:18:38 2020.
