 Gaussian 09, Revision D.01,
 Gaussian 09:  ES64L-G09RevD.01 24-Apr-2013

 --------------------
 #p B2PLYPD3/Def2QZVP
 --------------------

 ------------
 cyanomethane
 ------------
 Symbolic Z-matrix:
 Charge =  0 Multiplicity = 1

                         Standard orientation:
 ---------------------------------------------------------------------
 Center     Atomic      Atomic             Coordinates (Angstroms)
 Number     Number       Type             X           Y           Z
 ---------------------------------------------------------------------
      1          6           0       -1.186982    0.003246    0.009903
      2          6           0        0.274014   -0.021296   -0.000247
      3          7           0        1.439660    0.007852   -0.001571
      4          1           0       -1.524693   -0.009088    1.014605
      5          1           0       -1.570998   -0.882909   -0.553861
      6          1           0       -1.504123    0.945334   -0.507680
 ---------------------------------------------------------------------

 SCF Done:  E(RB2PLYPD3) =  -132.532357490     A.U. after   12 cycles
 E2(B2PLYPD3) =    -0.1815908957D+00 E(B2PLYPD3) =    -0.13271394838573D+03

 The electronic state is 1-A.
 Alpha  occ. eigenvalues --  -14.84433 -10.67558 -10.66531  -1.03598  -0.89082
 Alpha  occ. eigenvalues --   -0.59154  -0.54539  -0.53404  -0.44727  -0.38806
 Alpha  occ. eigenvalues --   -0.38637
 Alpha virt. eigenvalues --    0.03655   0.07484   0.07946   0.10160   0.11220
 Alpha virt. eigenvalues --    0.11400   0.15236   0.15978   0.16090   0.20129
 Alpha virt. eigenvalues --    0.20160   0.25243   0.32357   0.33858   0.34768

 Mulliken charges:
               1
     1  C   -0.095945
     2  C   -0.000235
     3  N   -0.212083
     4  H    0.105577
     5  H    0.100432
     6  H    0.102254
 Sum of Mulliken charges =   0.00000

 Dipole moment (field-independent basis, Debye):
    X=             -4.1324    Y=             -0.0053    Z=              0.0093  Tot=              4.1324
 Quadrupole moment (field-independent basis, Debye-Ang):
   XX=            -21.2208   YY=            -17.7460   ZZ=            -17.7537
   XY=              0.0006   XZ=              0.0046   YZ=             -0.0018

 Normal termination of Gaussian 09 at Wed Aug 26 09:51:40 2020.
