 Gaussian 09, Revision D.01,
 Gaussian 09:  ES64L-G09RevD.01 24-Apr-2013

 --------------------
 #p B2PLYPD3/Def2QZVP
 --------------------

 ------------
 cyanomethane
 ------------
 Symbolic Z-matrix:
 Charge =  0 Multiplicity = 1

                         Standard orientation:
 ---------------------------------------------------------------------
 Center     Atomic      Atomic             Coordinates (Angstroms)
 Number     Number       Type             X           Y           Z
 ---------------------------------------------------------------------
      1          6           0       -1.187855    0.005341   -0.021123
      2          6           0        0.284997    0.038362    0.010223
      3          7           0        1.434173   -0.017039   -0.001148
      4          1           0       -1.559629   -0.241469    0.984620
      5          1           0       -1.482708   -0.798000   -0.621321
      6          1           0       -1.579730    0.896531   -0.289865
 ---------------------------------------------------------------------

 SCF Done:  E(RB2PLYPD3) =  -132.530014108     A.U. after   11 cycles
 E2(B2PLYPD3) =    -0.1797258221D+00 E(B2PLYPD3) =    -0.13270973992978D+03

 The electronic state is 1-A.
 Alpha  occ. eigenvalues --  -14.84068 -10.66169 -10.66102  -1.04239  -0.89885
 Alpha  occ. eigenvalues --   -0.59884  -0.56249  -0.53199  -0.44734  -0.39486
 Alpha  occ. eigenvalues --   -0.39079
 Alpha virt. eigenvalues --    0.03855   0.08160   0.08845   0.10252   0.11045
 Alpha virt. eigenvalues --    0.11637   0.15352   0.16132   0.16684   0.19974
 Alpha virt. eigenvalues --    0.20151   0.25112   0.32755   0.34328   0.36020

 Mulliken charges:
               1
     1  C   -0.072897
     2  C   -0.002773
     3  N   -0.205062
     4  H    0.085675
     5  H    0.097273
     6  H    0.097783
 Sum of Mulliken charges =   0.00000

 Dipole moment (field-independent basis, Debye):
    X=             -4.1381    Y=              0.0055    Z=              0.0150  Tot=              4.1382
 Quadrupole moment (field-independent basis, Debye-Ang):
   XX=            -20.8876   YY=            -17.5763   ZZ=            -17.8414
   XY=              0.0736   XZ=             -0.0682   YZ=              0.0069

 Normal termination of Gaussian 09 at Wed Aug 26 11:09:24 2020.
