 Gaussian 09, Revision D.01,
 Gaussian 09:  ES64L-G09RevD.01 24-Apr-2013

 --------------------
 #p B2PLYPD3/Def2QZVP
 --------------------

 ------------
 cyanomethane
 ------------
 Symbolic Z-matrix:
 Charge =  0 Multiplicity = 1

                         Standard orientation:
 ---------------------------------------------------------------------
 Center     Atomic      Atomic             Coordinates (Angstroms)
 Number     Number       Type             X           Y           Z
 ---------------------------------------------------------------------
      1          6           0        1.162912   -0.023445   -0.018602
      2          6           0       -0.260277    0.074027    0.025880
      3          7           0       -1.432247   -0.045407   -0.017350
      4          1           0        1.408739    0.994149   -0.038185
      5          1           0        1.687058   -0.537834   -0.725825
      6          1           0        1.514123   -0.441961    0.841789
 ---------------------------------------------------------------------

 SCF Done:  E(RB2PLYPD3) =  -132.513336408     A.U. after   13 cycles
 E2(B2PLYPD3) =    -0.1825670458D+00 E(B2PLYPD3) =    -0.13269590345412D+03

 The electronic state is 1-A.
 Alpha  occ. eigenvalues --  -14.84934 -10.66949 -10.64941  -1.03408  -0.91294
 Alpha  occ. eigenvalues --   -0.62796  -0.55314  -0.53948  -0.45030  -0.38496
 Alpha  occ. eigenvalues --   -0.38336
 Alpha virt. eigenvalues --    0.03794   0.06973   0.08421   0.09569   0.11277
 Alpha virt. eigenvalues --    0.11686   0.14988   0.16046   0.17902   0.20135
 Alpha virt. eigenvalues --    0.20753   0.26363   0.33369   0.34892   0.35518

 Mulliken charges:
               1
     1  C   -0.061296
     2  C    0.016819
     3  N   -0.217971
     4  H    0.090084
     5  H    0.086419
     6  H    0.085944
 Sum of Mulliken charges =   0.00000

 Dipole moment (field-independent basis, Debye):
    X=              4.1485    Y=              0.0478    Z=              0.0545  Tot=              4.1491
 Quadrupole moment (field-independent basis, Debye-Ang):
   XX=            -20.6484   YY=            -17.6229   ZZ=            -17.9888
   XY=             -0.4151   XZ=             -0.0950   YZ=             -0.0248

 Normal termination of Gaussian 09 at Wed Aug 26 21:20:15 2020.
