 Gaussian 09, Revision D.01,
 Gaussian 09:  ES64L-G09RevD.01 24-Apr-2013

 --------------------
 #p B2PLYPD3/Def2QZVP
 --------------------

 ------------
 cyanomethane
 ------------
 Symbolic Z-matrix:
 Charge =  0 Multiplicity = 1

                         Standard orientation:
 ---------------------------------------------------------------------
 Center     Atomic      Atomic             Coordinates (Angstroms)
 Number     Number       Type             X           Y           Z
 ---------------------------------------------------------------------
      1          6           0       -1.157484   -0.003228   -0.005754
      2          6           0        0.281863    0.037025    0.034079
      3          7           0        1.423855   -0.021755   -0.029649
      4          1           0       -1.724821   -0.710414   -0.683397
      5          1           0       -1.578181    0.970012   -0.214137
      6          1           0       -1.410257   -0.310094    0.935126
 ---------------------------------------------------------------------

 SCF Done:  E(RB2PLYPD3) =  -132.524941318     A.U. after   12 cycles
 E2(B2PLYPD3) =    -0.1799557891D+00 E(B2PLYPD3) =    -0.13270489710742D+03

 The electronic state is 1-A.
 Alpha  occ. eigenvalues --  -14.84064 -10.66441 -10.66064  -1.04665  -0.89886
 Alpha  occ. eigenvalues --   -0.60807  -0.55273  -0.52161  -0.44935  -0.39394
 Alpha  occ. eigenvalues --   -0.39093
 Alpha virt. eigenvalues --    0.03574   0.07050   0.08869   0.10072   0.11486
 Alpha virt. eigenvalues --    0.11861   0.15502   0.15800   0.17949   0.19997
 Alpha virt. eigenvalues --    0.20483   0.25926   0.32948   0.34277   0.35302

 Mulliken charges:
               1
     1  C   -0.077402
     2  C    0.004498
     3  N   -0.201089
     4  H    0.086822
     5  H    0.090882
     6  H    0.096289
 Sum of Mulliken charges =   0.00000

 Dipole moment (field-independent basis, Debye):
    X=             -4.1113    Y=              0.0246    Z=              0.0943  Tot=              4.1124
 Quadrupole moment (field-independent basis, Debye-Ang):
   XX=            -20.6393   YY=            -17.7277   ZZ=            -17.8705
   XY=              0.1847   XZ=              0.2661   YZ=             -0.1007

 Normal termination of Gaussian 09 at Wed Aug 26 21:21:52 2020.
