 Gaussian 09, Revision D.01,
 Gaussian 09:  ES64L-G09RevD.01 24-Apr-2013

 --------------------
 #p B2PLYPD3/Def2QZVP
 --------------------

 ------------
 cyanomethane
 ------------
 Symbolic Z-matrix:
 Charge =  0 Multiplicity = 1

                         Standard orientation:
 ---------------------------------------------------------------------
 Center     Atomic      Atomic             Coordinates (Angstroms)
 Number     Number       Type             X           Y           Z
 ---------------------------------------------------------------------
      1          6           0        1.163971   -0.011598    0.006085
      2          6           0       -0.265172    0.018188   -0.018422
      3          7           0       -1.433716   -0.007626    0.003573
      4          1           0        1.576248    0.990461   -0.255545
      5          1           0        1.594627   -0.735135   -0.667018
      6          1           0        1.472346   -0.241481    0.971576
 ---------------------------------------------------------------------

 SCF Done:  E(RB2PLYPD3) =  -132.531393534     A.U. after   12 cycles
 E2(B2PLYPD3) =    -0.1816230943D+00 E(B2PLYPD3) =    -0.13271301662827D+03

 The electronic state is 1-A.
 Alpha  occ. eigenvalues --  -14.84582 -10.66592 -10.66483  -1.03639  -0.90060
 Alpha  occ. eigenvalues --   -0.60697  -0.54839  -0.53675  -0.44896  -0.38688
 Alpha  occ. eigenvalues --   -0.38563
 Alpha virt. eigenvalues --    0.03814   0.07317   0.07838   0.10103   0.11402
 Alpha virt. eigenvalues --    0.11468   0.15610   0.16040   0.16679   0.20169
 Alpha virt. eigenvalues --    0.20193   0.25874   0.32693   0.34488   0.35181

 Mulliken charges:
               1
     1  C   -0.073459
     2  C    0.002726
     3  N   -0.213766
     4  H    0.091498
     5  H    0.094617
     6  H    0.098385
 Sum of Mulliken charges =   0.00000

 Dipole moment (field-independent basis, Debye):
    X=              4.1496    Y=             -0.0008    Z=              0.0192  Tot=              4.1496
 Quadrupole moment (field-independent basis, Debye-Ang):
   XX=            -20.9019   YY=            -17.7504   ZZ=            -17.8152
   XY=             -0.0517   XZ=             -0.0217   YZ=              0.0034

 Normal termination of Gaussian 09 at Wed Aug 26 10:32:29 2020.
