 Gaussian 09, Revision D.01,
 Gaussian 09:  ES64L-G09RevD.01 24-Apr-2013

 --------------------
 #p B2PLYPD3/Def2QZVP
 --------------------

 ------------
 cyanomethane
 ------------
 Symbolic Z-matrix:
 Charge =  0 Multiplicity = 1

                         Standard orientation:
 ---------------------------------------------------------------------
 Center     Atomic      Atomic             Coordinates (Angstroms)
 Number     Number       Type             X           Y           Z
 ---------------------------------------------------------------------
      1          6           0       -1.177936    0.010499   -0.005633
      2          6           0        0.266563   -0.044850   -0.009100
      3          7           0        1.427557    0.008125    0.001818
      4          1           0       -1.440086    0.134541    0.956339
      5          1           0       -1.708511   -0.838362   -0.366788
      6          1           0       -1.376066    0.853056   -0.513876
 ---------------------------------------------------------------------

 SCF Done:  E(RB2PLYPD3) =  -132.521705369     A.U. after   12 cycles
 E2(B2PLYPD3) =    -0.1804968835D+00 E(B2PLYPD3) =    -0.13270220225268D+03

 The electronic state is 1-A.
 Alpha  occ. eigenvalues --  -14.84249 -10.66338 -10.65017  -1.03848  -0.91269
 Alpha  occ. eigenvalues --   -0.60435  -0.56531  -0.54874  -0.44708  -0.38944
 Alpha  occ. eigenvalues --   -0.38813
 Alpha virt. eigenvalues --    0.04036   0.07987   0.08995   0.10317   0.11245
 Alpha virt. eigenvalues --    0.11443   0.15343   0.15618   0.16996   0.20123
 Alpha virt. eigenvalues --    0.20239   0.25627   0.32786   0.35427   0.36006

 Mulliken charges:
               1
     1  C   -0.073556
     2  C    0.001195
     3  N   -0.214017
     4  H    0.094313
     5  H    0.091367
     6  H    0.100698
 Sum of Mulliken charges =   0.00000

 Dipole moment (field-independent basis, Debye):
    X=             -4.1589    Y=              0.0191    Z=              0.0375  Tot=              4.1591
 Quadrupole moment (field-independent basis, Debye-Ang):
   XX=            -20.8540   YY=            -17.5933   ZZ=            -17.7662
   XY=              0.1382   XZ=             -0.0507   YZ=             -0.0473

 Normal termination of Gaussian 09 at Wed Aug 26 23:24:21 2020.
