 Gaussian 09, Revision D.01,
 Gaussian 09:  ES64L-G09RevD.01 24-Apr-2013

 --------------------
 #p B2PLYPD3/Def2QZVP
 --------------------

 ------------
 cyanomethane
 ------------
 Symbolic Z-matrix:
 Charge =  0 Multiplicity = 1

                         Standard orientation:
 ---------------------------------------------------------------------
 Center     Atomic      Atomic             Coordinates (Angstroms)
 Number     Number       Type             X           Y           Z
 ---------------------------------------------------------------------
      1          6           0        1.169846    0.010941   -0.000353
      2          6           0       -0.282429   -0.022591   -0.005421
      3          7           0       -1.429771    0.010815    0.003572
      4          1           0        1.570599   -0.051216    0.994767
      5          1           0        1.558332    0.889867   -0.450856
      6          1           0        1.554958   -0.844462   -0.534266
 ---------------------------------------------------------------------

 SCF Done:  E(RB2PLYPD3) =  -132.535440567     A.U. after   11 cycles
 E2(B2PLYPD3) =    -0.1797118391D+00 E(B2PLYPD3) =    -0.13271515240588D+03

 The electronic state is 1-A.
 Alpha  occ. eigenvalues --  -14.84060 -10.66467 -10.66091  -1.04439  -0.89615
 Alpha  occ. eigenvalues --   -0.60436  -0.54356  -0.53742  -0.44841  -0.39339
 Alpha  occ. eigenvalues --   -0.39223
 Alpha virt. eigenvalues --    0.03851   0.08074   0.08196   0.10170   0.11496
 Alpha virt. eigenvalues --    0.11584   0.15557   0.16282   0.16913   0.20038
 Alpha virt. eigenvalues --    0.20088   0.25503   0.33019   0.34747   0.35229

 Mulliken charges:
               1
     1  C   -0.069922
     2  C   -0.000984
     3  N   -0.202832
     4  H    0.090278
     5  H    0.093690
     6  H    0.089770
 Sum of Mulliken charges =   0.00000

 Dipole moment (field-independent basis, Debye):
    X=              4.1274    Y=             -0.0211    Z=             -0.0018  Tot=              4.1275
 Quadrupole moment (field-independent basis, Debye-Ang):
   XX=            -20.7969   YY=            -17.7175   ZZ=            -17.7809
   XY=              0.0492   XZ=              0.0414   YZ=             -0.0203

 Normal termination of Gaussian 09 at Wed Aug 26 23:55:22 2020.
