 Gaussian 09, Revision D.01,
 Gaussian 09:  ES64L-G09RevD.01 24-Apr-2013

 --------------------
 #p B2PLYPD3/Def2QZVP
 --------------------

 ------------
 cyanomethane
 ------------
 Symbolic Z-matrix:
 Charge =  0 Multiplicity = 1

                         Standard orientation:
 ---------------------------------------------------------------------
 Center     Atomic      Atomic             Coordinates (Angstroms)
 Number     Number       Type             X           Y           Z
 ---------------------------------------------------------------------
      1          6           0        1.186178    0.008568   -0.003296
      2          6           0       -0.279072   -0.020083    0.030430
      3          7           0       -1.435271    0.013591   -0.017351
      4          1           0        1.509248   -0.048329    1.023083
      5          1           0        1.591478    0.925450   -0.495689
      6          1           0        1.503541   -0.903170   -0.568739
 ---------------------------------------------------------------------

 SCF Done:  E(RB2PLYPD3) =  -132.532568261     A.U. after   12 cycles
 E2(B2PLYPD3) =    -0.1809928002D+00 E(B2PLYPD3) =    -0.13271356106112D+03

 The electronic state is 1-A.
 Alpha  occ. eigenvalues --  -14.84219 -10.67702 -10.66302  -1.03931  -0.88857
 Alpha  occ. eigenvalues --   -0.58921  -0.54247  -0.53335  -0.44707  -0.38970
 Alpha  occ. eigenvalues --   -0.38878
 Alpha virt. eigenvalues --    0.03594   0.07429   0.08240   0.10134   0.11309
 Alpha virt. eigenvalues --    0.11482   0.15262   0.15525   0.16678   0.20085
 Alpha virt. eigenvalues --    0.20135   0.25262   0.32513   0.34007   0.34508

 Mulliken charges:
               1
     1  C   -0.098896
     2  C   -0.001023
     3  N   -0.207801
     4  H    0.103418
     5  H    0.102634
     6  H    0.101667
 Sum of Mulliken charges =   0.00000

 Dipole moment (field-independent basis, Debye):
    X=              4.1127    Y=             -0.0240    Z=              0.0322  Tot=              4.1129
 Quadrupole moment (field-independent basis, Debye-Ang):
   XX=            -21.2196   YY=            -17.7216   ZZ=            -17.7440
   XY=              0.1316   XZ=             -0.1056   YZ=             -0.0021

 Normal termination of Gaussian 09 at Wed Aug 26 10:52:50 2020.
