 Gaussian 09, Revision D.01,
 Gaussian 09:  ES64L-G09RevD.01 24-Apr-2013

 --------------------
 #p B2PLYPD3/Def2QZVP
 --------------------

 ------------
 cyanomethane
 ------------
 Symbolic Z-matrix:
 Charge =  0 Multiplicity = 1

                         Standard orientation:
 ---------------------------------------------------------------------
 Center     Atomic      Atomic             Coordinates (Angstroms)
 Number     Number       Type             X           Y           Z
 ---------------------------------------------------------------------
      1          6           0       -1.186631    0.032462   -0.012242
      2          6           0        0.279278    0.036509   -0.016367
      3          7           0        1.452832   -0.033541    0.012733
      4          1           0       -1.434257    1.011782    0.067203
      5          1           0       -1.686401   -0.625430    0.839037
      6          1           0       -1.605051   -0.565391   -0.823720
 ---------------------------------------------------------------------

 SCF Done:  E(RB2PLYPD3) =  -132.515395778     A.U. after   12 cycles
 E2(B2PLYPD3) =    -0.1829676585D+00 E(B2PLYPD3) =    -0.13269836343658D+03

 The electronic state is 1-A.
 Alpha  occ. eigenvalues --  -14.84932 -10.67498 -10.67045  -1.03332  -0.89244
 Alpha  occ. eigenvalues --   -0.60174  -0.56936  -0.50155  -0.44946  -0.38942
 Alpha  occ. eigenvalues --   -0.38107
 Alpha virt. eigenvalues --    0.03260   0.06323   0.08348   0.09986   0.10592
 Alpha virt. eigenvalues --    0.11905   0.15020   0.16491   0.16686   0.19891
 Alpha virt. eigenvalues --    0.20426   0.25191   0.31688   0.33047   0.35910

 Mulliken charges:
               1
     1  C   -0.076720
     2  C    0.003190
     3  N   -0.214258
     4  H    0.110504
     5  H    0.081854
     6  H    0.095430
 Sum of Mulliken charges =   0.00000

 Dipole moment (field-independent basis, Debye):
    X=             -4.1671    Y=             -0.0158    Z=             -0.0346  Tot=              4.1673
 Quadrupole moment (field-independent basis, Debye-Ang):
   XX=            -20.8743   YY=            -17.4941   ZZ=            -18.3354
   XY=              0.5305   XZ=             -0.0853   YZ=              0.1201

 Normal termination of Gaussian 09 at Wed Aug 26 22:26:10 2020.
