 Gaussian 09, Revision D.01,
 Gaussian 09:  ES64L-G09RevD.01 24-Apr-2013

 --------------------
 #p B2PLYPD3/Def2QZVP
 --------------------

 ------------
 cyanomethane
 ------------
 Symbolic Z-matrix:
 Charge =  0 Multiplicity = 1

                         Standard orientation:
 ---------------------------------------------------------------------
 Center     Atomic      Atomic             Coordinates (Angstroms)
 Number     Number       Type             X           Y           Z
 ---------------------------------------------------------------------
      1          6           0        1.186492   -0.004653   -0.001845
      2          6           0       -0.276822   -0.006045   -0.017043
      3          7           0       -1.436129    0.005244    0.011680
      4          1           0        1.492640   -0.769445   -0.689898
      5          1           0        1.560785   -0.213420    1.030315
      6          1           0        1.541460    1.010346   -0.308852
 ---------------------------------------------------------------------

 SCF Done:  E(RB2PLYPD3) =  -132.533040111     A.U. after   12 cycles
 E2(B2PLYPD3) =    -0.1810964049D+00 E(B2PLYPD3) =    -0.13271413651615D+03

 The electronic state is 1-A.
 Alpha  occ. eigenvalues --  -14.84248 -10.67657 -10.66334  -1.03835  -0.88956
 Alpha  occ. eigenvalues --   -0.58884  -0.54643  -0.53200  -0.44692  -0.38930
 Alpha  occ. eigenvalues --   -0.38799
 Alpha virt. eigenvalues --    0.03640   0.07471   0.08164   0.10168   0.11253
 Alpha virt. eigenvalues --    0.11498   0.15233   0.15821   0.16279   0.20086
 Alpha virt. eigenvalues --    0.20154   0.25202   0.32450   0.33957   0.34644

 Mulliken charges:
               1
     1  C   -0.098486
     2  C   -0.001640
     3  N   -0.209017
     4  H    0.106328
     5  H    0.101151
     6  H    0.101664
 Sum of Mulliken charges =   0.00000

 Dipole moment (field-independent basis, Debye):
    X=              4.1198    Y=             -0.0085    Z=             -0.0142  Tot=              4.1199
 Quadrupole moment (field-independent basis, Debye-Ang):
   XX=            -21.2443   YY=            -17.7045   ZZ=            -17.7522
   XY=              0.0556   XZ=              0.1161   YZ=              0.0442

 Normal termination of Gaussian 09 at Wed Aug 26 09:39:53 2020.
