 Gaussian 09, Revision D.01,
 Gaussian 09:  ES64L-G09RevD.01 24-Apr-2013

 --------------------
 #p B2PLYPD3/Def2QZVP
 --------------------

 ------------
 cyanomethane
 ------------
 Symbolic Z-matrix:
 Charge =  0 Multiplicity = 1

                         Standard orientation:
 ---------------------------------------------------------------------
 Center     Atomic      Atomic             Coordinates (Angstroms)
 Number     Number       Type             X           Y           Z
 ---------------------------------------------------------------------
      1          6           0        1.168768    0.003880    0.000727
      2          6           0       -0.273907   -0.020966   -0.000068
      3          7           0       -1.436629    0.013275    0.001129
      4          1           0        1.528435   -0.548447   -0.847175
      5          1           0        1.559985   -0.461041    0.889130
      6          1           0        1.598816    1.019078   -0.053809
 ---------------------------------------------------------------------

 SCF Done:  E(RB2PLYPD3) =  -132.533946741     A.U. after   12 cycles
 E2(B2PLYPD3) =    -0.1812166131D+00 E(B2PLYPD3) =    -0.13271516335412D+03

 The electronic state is 1-A.
 Alpha  occ. eigenvalues --  -14.84492 -10.66834 -10.66522  -1.03851  -0.89569
 Alpha  occ. eigenvalues --   -0.60474  -0.54218  -0.53564  -0.44909  -0.38849
 Alpha  occ. eigenvalues --   -0.38823
 Alpha virt. eigenvalues --    0.03750   0.07390   0.07932   0.10117   0.11395
 Alpha virt. eigenvalues --    0.11495   0.15543   0.16083   0.16853   0.20116
 Alpha virt. eigenvalues --    0.20171   0.25646   0.32839   0.34620   0.34789

 Mulliken charges:
               1
     1  C   -0.073676
     2  C    0.001757
     3  N   -0.210044
     4  H    0.094583
     5  H    0.093973
     6  H    0.093406
 Sum of Mulliken charges =   0.00000

 Dipole moment (field-independent basis, Debye):
    X=              4.1451    Y=             -0.0307    Z=             -0.0036  Tot=              4.1452
 Quadrupole moment (field-independent basis, Debye-Ang):
   XX=            -20.8586   YY=            -17.7959   ZZ=            -17.8117
   XY=              0.0900   XZ=              0.0221   YZ=              0.0050

 Normal termination of Gaussian 09 at Wed Aug 26 09:19:38 2020.
