 Gaussian 09, Revision D.01,
 Gaussian 09:  ES64L-G09RevD.01 24-Apr-2013

 --------------------
 #p B2PLYPD3/Def2QZVP
 --------------------

 ------------
 cyanomethane
 ------------
 Symbolic Z-matrix:
 Charge =  0 Multiplicity = 1

                         Standard orientation:
 ---------------------------------------------------------------------
 Center     Atomic      Atomic             Coordinates (Angstroms)
 Number     Number       Type             X           Y           Z
 ---------------------------------------------------------------------
      1          6           0       -1.187646    0.012631    0.008520
      2          6           0        0.295197   -0.028231   -0.034457
      3          7           0        1.445117    0.008487    0.008149
      4          1           0       -1.561402    1.061672   -0.287620
      5          1           0       -1.480511   -0.228799    1.064848
      6          1           0       -1.719211   -0.798688   -0.678647
 ---------------------------------------------------------------------

 SCF Done:  E(RB2PLYPD3) =  -132.524702302     A.U. after   12 cycles
 E2(B2PLYPD3) =    -0.1812367259D+00 E(B2PLYPD3) =    -0.13270593902754D+03

 The electronic state is 1-A.
 Alpha  occ. eigenvalues --  -14.84246 -10.69313 -10.66438  -1.04269  -0.87338
 Alpha  occ. eigenvalues --   -0.58615  -0.52978  -0.51527  -0.44827  -0.39205
 Alpha  occ. eigenvalues --   -0.39060
 Alpha virt. eigenvalues --    0.03305   0.06804   0.07567   0.10240   0.11479
 Alpha virt. eigenvalues --    0.11634   0.14983   0.16032   0.16791   0.20008
 Alpha virt. eigenvalues --    0.20039   0.24956   0.31296   0.33641   0.33856

 Mulliken charges:
               1
     1  C   -0.108011
     2  C    0.003306
     3  N   -0.201409
     4  H    0.104881
     5  H    0.105723
     6  H    0.095509
 Sum of Mulliken charges =   0.00000

 Dipole moment (field-independent basis, Debye):
    X=             -4.1057    Y=             -0.0103    Z=              0.0223  Tot=              4.1058
 Quadrupole moment (field-independent basis, Debye-Ang):
   XX=            -21.1180   YY=            -17.7786   ZZ=            -17.9370
   XY=              0.0390   XZ=              0.0342   YZ=             -0.0631

 Normal termination of Gaussian 09 at Wed Aug 26 23:27:46 2020.
