 Gaussian 09, Revision D.01,
 Gaussian 09:  ES64L-G09RevD.01 24-Apr-2013

 --------------------
 #p B2PLYPD3/Def2QZVP
 --------------------

 ------------
 cyanomethane
 ------------
 Symbolic Z-matrix:
 Charge =  0 Multiplicity = 1

                         Standard orientation:
 ---------------------------------------------------------------------
 Center     Atomic      Atomic             Coordinates (Angstroms)
 Number     Number       Type             X           Y           Z
 ---------------------------------------------------------------------
      1          6           0       -1.183356    0.003461   -0.004106
      2          6           0        0.273542    0.012592    0.017914
      3          7           0        1.441050   -0.008028   -0.009482
      4          1           0       -1.529040    0.998237   -0.147024
      5          1           0       -1.541292   -0.396367    0.931390
      6          1           0       -1.558140   -0.641992   -0.800844
 ---------------------------------------------------------------------

 SCF Done:  E(RB2PLYPD3) =  -132.533760961     A.U. after   12 cycles
 E2(B2PLYPD3) =    -0.1814941138D+00 E(B2PLYPD3) =    -0.13271525507488D+03

 The electronic state is 1-A.
 Alpha  occ. eigenvalues --  -14.84545 -10.66830 -10.66619  -1.03569  -0.89568
 Alpha  occ. eigenvalues --   -0.59795  -0.54853  -0.53777  -0.44807  -0.38807
 Alpha  occ. eigenvalues --   -0.38692
 Alpha virt. eigenvalues --    0.03778   0.07615   0.08052   0.10152   0.11163
 Alpha virt. eigenvalues --    0.11381   0.15383   0.16008   0.16408   0.20128
 Alpha virt. eigenvalues --    0.20185   0.25349   0.32655   0.34508   0.35013

 Mulliken charges:
               1
     1  C   -0.080691
     2  C   -0.000093
     3  N   -0.212933
     4  H    0.100130
     5  H    0.096905
     6  H    0.096683
 Sum of Mulliken charges =   0.00000

 Dipole moment (field-independent basis, Debye):
    X=             -4.1509    Y=              0.0045    Z=              0.0155  Tot=              4.1509
 Quadrupole moment (field-independent basis, Debye-Ang):
   XX=            -21.0207   YY=            -17.7201   ZZ=            -17.8177
   XY=              0.0785   XZ=              0.0526   YZ=             -0.0188

 Normal termination of Gaussian 09 at Thu Aug 27 00:04:05 2020.
