 Gaussian 09, Revision D.01,
 Gaussian 09:  ES64L-G09RevD.01 24-Apr-2013

 --------------------
 #p B2PLYPD3/Def2QZVP
 --------------------

 ------------
 cyanomethane
 ------------
 Symbolic Z-matrix:
 Charge =  0 Multiplicity = 1

                         Standard orientation:
 ---------------------------------------------------------------------
 Center     Atomic      Atomic             Coordinates (Angstroms)
 Number     Number       Type             X           Y           Z
 ---------------------------------------------------------------------
      1          6           0        1.182540    0.011135    0.021377
      2          6           0       -0.273290    0.005684   -0.036284
      3          7           0       -1.452474   -0.011035    0.010643
      4          1           0        1.489010    1.104477   -0.053490
      5          1           0        1.687695   -0.620220   -0.841213
      6          1           0        1.535114   -0.507923    0.909640
 ---------------------------------------------------------------------

 SCF Done:  E(RB2PLYPD3) =  -132.522654864     A.U. after   12 cycles
 E2(B2PLYPD3) =    -0.1835643545D+00 E(B2PLYPD3) =    -0.13270621921850D+03

 The electronic state is 1-A.
 Alpha  occ. eigenvalues --  -14.84990 -10.68616 -10.67126  -1.03144  -0.88394
 Alpha  occ. eigenvalues --   -0.59635  -0.54208  -0.51431  -0.44924  -0.38509
 Alpha  occ. eigenvalues --   -0.38182
 Alpha virt. eigenvalues --    0.03400   0.06282   0.07226   0.10086   0.11043
 Alpha virt. eigenvalues --    0.11585   0.14995   0.16247   0.16294   0.20078
 Alpha virt. eigenvalues --    0.20268   0.25401   0.31448   0.33317   0.34391

 Mulliken charges:
               1
     1  C   -0.096802
     2  C    0.006924
     3  N   -0.216070
     4  H    0.108176
     5  H    0.091533
     6  H    0.106238
 Sum of Mulliken charges =   0.00000

 Dipole moment (field-independent basis, Debye):
    X=              4.1450    Y=             -0.0140    Z=              0.0128  Tot=              4.1451
 Quadrupole moment (field-independent basis, Debye-Ang):
   XX=            -21.1410   YY=            -17.6472   ZZ=            -18.1551
   XY=             -0.2640   XZ=              0.0020   YZ=             -0.0939

 Normal termination of Gaussian 09 at Wed Aug 26 21:01:42 2020.
