 Gaussian 09, Revision D.01,
 Gaussian 09:  ES64L-G09RevD.01 24-Apr-2013

 --------------------
 #p B2PLYPD3/Def2QZVP
 --------------------

 ------------
 cyanomethane
 ------------
 Symbolic Z-matrix:
 Charge =  0 Multiplicity = 1

                         Standard orientation:
 ---------------------------------------------------------------------
 Center     Atomic      Atomic             Coordinates (Angstroms)
 Number     Number       Type             X           Y           Z
 ---------------------------------------------------------------------
      1          6           0       -1.185810   -0.004878   -0.006713
      2          6           0        0.279401    0.003073    0.017039
      3          7           0        1.437139    0.002026   -0.007586
      4          1           0       -1.544451   -0.128181    0.987370
      5          1           0       -1.501529   -0.831350   -0.603476
      6          1           0       -1.575540    0.956183   -0.392750
 ---------------------------------------------------------------------

 SCF Done:  E(RB2PLYPD3) =  -132.534460733     A.U. after   12 cycles
 E2(B2PLYPD3) =    -0.1806284585D+00 E(B2PLYPD3) =    -0.13271508919128D+03

 The electronic state is 1-A.
 Alpha  occ. eigenvalues --  -14.84249 -10.66925 -10.66334  -1.03932  -0.89389
 Alpha  occ. eigenvalues --   -0.59466  -0.54719  -0.53794  -0.44739  -0.39050
 Alpha  occ. eigenvalues --   -0.38967
 Alpha virt. eigenvalues --    0.03778   0.07854   0.08288   0.10202   0.11299
 Alpha virt. eigenvalues --    0.11390   0.15300   0.15973   0.16496   0.20091
 Alpha virt. eigenvalues --    0.20126   0.25198   0.32627   0.34533   0.34987

 Mulliken charges:
               1
     1  C   -0.084549
     2  C   -0.002271
     3  N   -0.208376
     4  H    0.096541
     5  H    0.101340
     6  H    0.097315
 Sum of Mulliken charges =   0.00000

 Dipole moment (field-independent basis, Debye):
    X=             -4.1370    Y=             -0.0125    Z=              0.0290  Tot=              4.1371
 Quadrupole moment (field-independent basis, Debye-Ang):
   XX=            -21.0475   YY=            -17.6554   ZZ=            -17.8139
   XY=             -0.0458   XZ=             -0.0167   YZ=              0.0295

 Normal termination of Gaussian 09 at Thu Aug 27 00:09:59 2020.
