 Gaussian 09, Revision D.01,
 Gaussian 09:  ES64L-G09RevD.01 24-Apr-2013

 --------------------
 #p B2PLYPD3/Def2QZVP
 --------------------

 ------------
 cyanomethane
 ------------
 Symbolic Z-matrix:
 Charge =  0 Multiplicity = 1

                         Standard orientation:
 ---------------------------------------------------------------------
 Center     Atomic      Atomic             Coordinates (Angstroms)
 Number     Number       Type             X           Y           Z
 ---------------------------------------------------------------------
      1          6           0        1.183761    0.004623   -0.003139
      2          6           0       -0.275446   -0.017191    0.009057
      3          7           0       -1.437392    0.008094    0.000348
      4          1           0        1.486589   -0.567657   -0.852485
      5          1           0        1.598344   -0.438593    0.900406
      6          1           0        1.526925    1.024995   -0.085860
 ---------------------------------------------------------------------

 SCF Done:  E(RB2PLYPD3) =  -132.534492729     A.U. after   12 cycles
 E2(B2PLYPD3) =    -0.1809909953D+00 E(B2PLYPD3) =    -0.13271548372406D+03

 The electronic state is 1-A.
 Alpha  occ. eigenvalues --  -14.84354 -10.66871 -10.66434  -1.03776  -0.89514
 Alpha  occ. eigenvalues --   -0.59585  -0.54670  -0.53983  -0.44754  -0.38885
 Alpha  occ. eigenvalues --   -0.38866
 Alpha virt. eigenvalues --    0.03798   0.07773   0.08166   0.10186   0.11308
 Alpha virt. eigenvalues --    0.11349   0.15338   0.15929   0.16457   0.20129
 Alpha virt. eigenvalues --    0.20140   0.25303   0.32650   0.34759   0.34786

 Mulliken charges:
               1
     1  C   -0.084318
     2  C   -0.001347
     3  N   -0.210654
     4  H    0.100331
     5  H    0.096304
     6  H    0.099684
 Sum of Mulliken charges =   0.00000

 Dipole moment (field-independent basis, Debye):
    X=              4.1411    Y=             -0.0126    Z=             -0.0077  Tot=              4.1412
 Quadrupole moment (field-independent basis, Debye-Ang):
   XX=            -21.0564   YY=            -17.7225   ZZ=            -17.7622
   XY=              0.0318   XZ=              0.0714   YZ=              0.0205

 Normal termination of Gaussian 09 at Wed Aug 26 13:29:04 2020.
