 Gaussian 09, Revision D.01,
 Gaussian 09:  ES64L-G09RevD.01 24-Apr-2013

 --------------------
 #p B2PLYPD3/Def2QZVP
 --------------------

 ------------
 cyanomethane
 ------------
 Symbolic Z-matrix:
 Charge =  0 Multiplicity = 1

                         Standard orientation:
 ---------------------------------------------------------------------
 Center     Atomic      Atomic             Coordinates (Angstroms)
 Number     Number       Type             X           Y           Z
 ---------------------------------------------------------------------
      1          6           0        1.186686    0.006189   -0.009696
      2          6           0       -0.286075    0.012221   -0.021589
      3          7           0       -1.431770   -0.011172    0.019655
      4          1           0        1.650761   -0.535946    0.919573
      5          1           0        1.485346    1.056769    0.009596
      6          1           0        1.482618   -0.553083   -0.879039
 ---------------------------------------------------------------------

 SCF Done:  E(RB2PLYPD3) =  -132.529266988     A.U. after   12 cycles
 E2(B2PLYPD3) =    -0.1802197943D+00 E(B2PLYPD3) =    -0.13270948678230D+03

 The electronic state is 1-A.
 Alpha  occ. eigenvalues --  -14.83922 -10.67976 -10.66009  -1.04364  -0.88593
 Alpha  occ. eigenvalues --   -0.58569  -0.55178  -0.51973  -0.44662  -0.39351
 Alpha  occ. eigenvalues --   -0.39028
 Alpha virt. eigenvalues --    0.03486   0.07245   0.08620   0.10213   0.11322
 Alpha virt. eigenvalues --    0.11713   0.15182   0.15688   0.16693   0.20002
 Alpha virt. eigenvalues --    0.20113   0.25067   0.32144   0.33608   0.34928

 Mulliken charges:
               1
     1  C   -0.102354
     2  C   -0.003797
     3  N   -0.201610
     4  H    0.094102
     5  H    0.107085
     6  H    0.106574
 Sum of Mulliken charges =   0.00000

 Dipole moment (field-independent basis, Debye):
    X=              4.0949    Y=              0.0118    Z=             -0.0400  Tot=              4.0951
 Quadrupole moment (field-independent basis, Debye-Ang):
   XX=            -21.2227   YY=            -17.6101   ZZ=            -17.8298
   XY=             -0.1534   XZ=              0.2209   YZ=              0.0926

 Normal termination of Gaussian 09 at Wed Aug 26 15:35:15 2020.
