 Gaussian 09, Revision D.01,
 Gaussian 09:  ES64L-G09RevD.01 24-Apr-2013

 --------------------
 #p B2PLYPD3/Def2QZVP
 --------------------

 ------------
 cyanomethane
 ------------
 Symbolic Z-matrix:
 Charge =  0 Multiplicity = 1

                         Standard orientation:
 ---------------------------------------------------------------------
 Center     Atomic      Atomic             Coordinates (Angstroms)
 Number     Number       Type             X           Y           Z
 ---------------------------------------------------------------------
      1          6           0        1.166940   -0.013433   -0.024480
      2          6           0       -0.280533    0.007194    0.038241
      3          7           0       -1.428617   -0.003888   -0.016207
      4          1           0        1.537996    1.023477   -0.007990
      5          1           0        1.557107   -0.492990   -0.818579
      6          1           0        1.586777   -0.465842    0.857455
 ---------------------------------------------------------------------

 SCF Done:  E(RB2PLYPD3) =  -132.530274786     A.U. after   12 cycles
 E2(B2PLYPD3) =    -0.1798110211D+00 E(B2PLYPD3) =    -0.13271008580667D+03

 The electronic state is 1-A.
 Alpha  occ. eigenvalues --  -14.84127 -10.66160 -10.66084  -1.04414  -0.89962
 Alpha  occ. eigenvalues --   -0.61051  -0.55024  -0.53260  -0.44883  -0.39405
 Alpha  occ. eigenvalues --   -0.39085
 Alpha virt. eigenvalues --    0.03871   0.08056   0.08188   0.10109   0.11457
 Alpha virt. eigenvalues --    0.11653   0.15603   0.16120   0.17225   0.20071
 Alpha virt. eigenvalues --    0.20093   0.25676   0.32993   0.34282   0.35763

 Mulliken charges:
               1
     1  C   -0.065135
     2  C    0.002277
     3  N   -0.204082
     4  H    0.087016
     5  H    0.094992
     6  H    0.084932
 Sum of Mulliken charges =   0.00000

 Dipole moment (field-independent basis, Debye):
    X=              4.1245    Y=              0.0013    Z=              0.0337  Tot=              4.1246
 Quadrupole moment (field-independent basis, Debye-Ang):
   XX=            -20.7381   YY=            -17.7277   ZZ=            -17.7757
   XY=             -0.0545   XZ=             -0.0415   YZ=              0.0623

 Normal termination of Gaussian 09 at Wed Aug 26 10:37:13 2020.
