 Gaussian 09, Revision D.01,
 Gaussian 09:  ES64L-G09RevD.01 24-Apr-2013

 --------------------
 #p B2PLYPD3/Def2QZVP
 --------------------

 ------------
 cyanomethane
 ------------
 Symbolic Z-matrix:
 Charge =  0 Multiplicity = 1

                         Standard orientation:
 ---------------------------------------------------------------------
 Center     Atomic      Atomic             Coordinates (Angstroms)
 Number     Number       Type             X           Y           Z
 ---------------------------------------------------------------------
      1          6           0        1.178363   -0.002027    0.001122
      2          6           0       -0.278329   -0.019504    0.005334
      3          7           0       -1.429982    0.010196   -0.005964
      4          1           0        1.544936    1.008323   -0.276767
      5          1           0        1.567927   -0.720585   -0.702035
      6          1           0        1.496813   -0.229923    0.981817
 ---------------------------------------------------------------------

 SCF Done:  E(RB2PLYPD3) =  -132.534862041     A.U. after   12 cycles
 E2(B2PLYPD3) =    -0.1801406804D+00 E(B2PLYPD3) =    -0.13271500272155D+03

 The electronic state is 1-A.
 Alpha  occ. eigenvalues --  -14.84063 -10.66866 -10.66107  -1.04185  -0.89470
 Alpha  occ. eigenvalues --   -0.59538  -0.54802  -0.53674  -0.44726  -0.39162
 Alpha  occ. eigenvalues --   -0.39043
 Alpha virt. eigenvalues --    0.03773   0.07829   0.08419   0.10192   0.11371
 Alpha virt. eigenvalues --    0.11547   0.15417   0.15998   0.16518   0.20070
 Alpha virt. eigenvalues --    0.20111   0.25364   0.32813   0.34381   0.35060

 Mulliken charges:
               1
     1  C   -0.085587
     2  C   -0.002957
     3  N   -0.205597
     4  H    0.096279
     5  H    0.097970
     6  H    0.099892
 Sum of Mulliken charges =   0.00000

 Dipole moment (field-independent basis, Debye):
    X=              4.1201    Y=             -0.0171    Z=              0.0182  Tot=              4.1201
 Quadrupole moment (field-independent basis, Debye-Ang):
   XX=            -21.0526   YY=            -17.7095   ZZ=            -17.7060
   XY=              0.0483   XZ=             -0.0651   YZ=              0.0078

 Normal termination of Gaussian 09 at Thu Aug 27 00:13:49 2020.
