 Gaussian 09, Revision D.01,
 Gaussian 09:  ES64L-G09RevD.01 24-Apr-2013

 --------------------
 #p B2PLYPD3/Def2QZVP
 --------------------

 ------------
 cyanomethane
 ------------
 Symbolic Z-matrix:
 Charge =  0 Multiplicity = 1

                         Standard orientation:
 ---------------------------------------------------------------------
 Center     Atomic      Atomic             Coordinates (Angstroms)
 Number     Number       Type             X           Y           Z
 ---------------------------------------------------------------------
      1          6           0       -1.174025    0.013200    0.001438
      2          6           0        0.283046   -0.007700   -0.013815
      3          7           0        1.428217    0.001873    0.006884
      4          1           0       -1.540504    1.038680    0.016461
      5          1           0       -1.552714   -0.549539    0.895055
      6          1           0       -1.558427   -0.535248   -0.885437
 ---------------------------------------------------------------------

 SCF Done:  E(RB2PLYPD3) =  -132.534781368     A.U. after   11 cycles
 E2(B2PLYPD3) =    -0.1799240506D+00 E(B2PLYPD3) =    -0.13271470541878D+03

 The electronic state is 1-A.
 Alpha  occ. eigenvalues --  -14.83917 -10.67633 -10.65966  -1.04471  -0.88801
 Alpha  occ. eigenvalues --   -0.59342  -0.54242  -0.52842  -0.44740  -0.39337
 Alpha  occ. eigenvalues --   -0.39101
 Alpha virt. eigenvalues --    0.03670   0.07732   0.08004   0.10182   0.11492
 Alpha virt. eigenvalues --    0.11755   0.15373   0.16104   0.16614   0.20006
 Alpha virt. eigenvalues --    0.20086   0.25369   0.32683   0.33883   0.34818

 Mulliken charges:
               1
     1  C   -0.092661
     2  C   -0.002556
     3  N   -0.200991
     4  H    0.103171
     5  H    0.096387
     6  H    0.096649
 Sum of Mulliken charges =   0.00000

 Dipole moment (field-independent basis, Debye):
    X=             -4.1021    Y=             -0.0159    Z=             -0.0102  Tot=              4.1022
 Quadrupole moment (field-independent basis, Debye-Ang):
   XX=            -21.0836   YY=            -17.6281   ZZ=            -17.8303
   XY=              0.0393   XZ=             -0.0368   YZ=              0.0082

 Normal termination of Gaussian 09 at Wed Aug 26 10:20:49 2020.
