 Gaussian 09, Revision D.01,
 Gaussian 09:  ES64L-G09RevD.01 24-Apr-2013

 --------------------
 #p B2PLYPD3/Def2QZVP
 --------------------

 ------------
 cyanomethane
 ------------
 Symbolic Z-matrix:
 Charge =  0 Multiplicity = 1

                         Standard orientation:
 ---------------------------------------------------------------------
 Center     Atomic      Atomic             Coordinates (Angstroms)
 Number     Number       Type             X           Y           Z
 ---------------------------------------------------------------------
      1          6           0        1.200716    0.012322    0.005397
      2          6           0       -0.266771   -0.024368    0.074466
      3          7           0       -1.447695    0.020587   -0.036056
      4          1           0        1.532707   -0.158495    0.912084
      5          1           0        1.603735    0.966684   -0.455935
      6          1           0        1.393753   -0.880017   -0.682931
 ---------------------------------------------------------------------

 SCF Done:  E(RB2PLYPD3) =  -132.514871354     A.U. after   13 cycles
 E2(B2PLYPD3) =    -0.1836078240D+00 E(B2PLYPD3) =    -0.13269847917816D+03

 The electronic state is 1-A.
 Alpha  occ. eigenvalues --  -14.84990 -10.67283 -10.67127  -1.02787  -0.89625
 Alpha  occ. eigenvalues --   -0.59440  -0.55703  -0.52882  -0.44729  -0.38447
 Alpha  occ. eigenvalues --   -0.37990
 Alpha virt. eigenvalues --    0.03240   0.06726   0.08577   0.10082   0.10644
 Alpha virt. eigenvalues --    0.11343   0.14773   0.15332   0.16646   0.20129
 Alpha virt. eigenvalues --    0.20341   0.25354   0.32200   0.32980   0.34698

 Mulliken charges:
               1
     1  C   -0.104145
     2  C    0.005117
     3  N   -0.221782
     4  H    0.111131
     5  H    0.105921
     6  H    0.103758
 Sum of Mulliken charges =   0.00000

 Dipole moment (field-independent basis, Debye):
    X=              4.1426    Y=             -0.0420    Z=              0.0437  Tot=              4.1430
 Quadrupole moment (field-independent basis, Debye-Ang):
   XX=            -21.2954   YY=            -17.7267   ZZ=            -17.8345
   XY=              0.2244   XZ=             -0.0932   YZ=             -0.0344

 Normal termination of Gaussian 09 at Wed Aug 26 23:08:06 2020.
