 Gaussian 09, Revision D.01,
 Gaussian 09:  ES64L-G09RevD.01 24-Apr-2013

 --------------------
 #p B2PLYPD3/Def2QZVP
 --------------------

 ------------
 cyanomethane
 ------------
 Symbolic Z-matrix:
 Charge =  0 Multiplicity = 1

                         Standard orientation:
 ---------------------------------------------------------------------
 Center     Atomic      Atomic             Coordinates (Angstroms)
 Number     Number       Type             X           Y           Z
 ---------------------------------------------------------------------
      1          6           0       -1.167872    0.002426   -0.002590
      2          6           0        0.274202    0.000424    0.024621
      3          7           0        1.432961   -0.003960   -0.010969
      4          1           0       -1.506375    1.018402   -0.148321
      5          1           0       -1.595792   -0.388933    0.905662
      6          1           0       -1.566546   -0.618849   -0.812741
 ---------------------------------------------------------------------

 SCF Done:  E(RB2PLYPD3) =  -132.534708581     A.U. after   11 cycles
 E2(B2PLYPD3) =    -0.1808537991D+00 E(B2PLYPD3) =    -0.13271556237994D+03

 The electronic state is 1-A.
 Alpha  occ. eigenvalues --  -14.84350 -10.66823 -10.66373  -1.03991  -0.89567
 Alpha  occ. eigenvalues --   -0.60377  -0.54368  -0.53507  -0.44868  -0.38947
 Alpha  occ. eigenvalues --   -0.38870
 Alpha virt. eigenvalues --    0.03770   0.07574   0.07928   0.10147   0.11408
 Alpha virt. eigenvalues --    0.11566   0.15511   0.16294   0.16600   0.20089
 Alpha virt. eigenvalues --    0.20151   0.25655   0.32893   0.34557   0.34851

 Mulliken charges:
               1
     1  C   -0.075893
     2  C    0.000975
     3  N   -0.208549
     4  H    0.096925
     5  H    0.093170
     6  H    0.093371
 Sum of Mulliken charges =   0.00000

 Dipole moment (field-independent basis, Debye):
    X=             -4.1366    Y=              0.0019    Z=              0.0147  Tot=              4.1366
 Quadrupole moment (field-independent basis, Debye-Ang):
   XX=            -20.8935   YY=            -17.7173   ZZ=            -17.8402
   XY=              0.0945   XZ=              0.0337   YZ=             -0.0168

 Normal termination of Gaussian 09 at Thu Aug 27 00:11:36 2020.
