 Gaussian 09, Revision D.01,
 Gaussian 09:  ES64L-G09RevD.01 24-Apr-2013

 --------------------
 #p B2PLYPD3/Def2QZVP
 --------------------

 ------------
 cyanomethane
 ------------
 Symbolic Z-matrix:
 Charge =  0 Multiplicity = 1

                         Standard orientation:
 ---------------------------------------------------------------------
 Center     Atomic      Atomic             Coordinates (Angstroms)
 Number     Number       Type             X           Y           Z
 ---------------------------------------------------------------------
      1          6           0        1.172818    0.002354   -0.004811
      2          6           0       -0.274362   -0.012481    0.014692
      3          7           0       -1.438942    0.008275   -0.006434
      4          1           0        1.532695   -0.811146   -0.617093
      5          1           0        1.567288   -0.126861    0.998579
      6          1           0        1.581874    0.940849   -0.395738
 ---------------------------------------------------------------------

 SCF Done:  E(RB2PLYPD3) =  -132.534336642     A.U. after   12 cycles
 E2(B2PLYPD3) =    -0.1813756314D+00 E(B2PLYPD3) =    -0.13271571227291D+03

 The electronic state is 1-A.
 Alpha  occ. eigenvalues --  -14.84530 -10.66978 -10.66581  -1.03759  -0.89439
 Alpha  occ. eigenvalues --   -0.60274  -0.54119  -0.53639  -0.44893  -0.38819
 Alpha  occ. eigenvalues --   -0.38788
 Alpha virt. eigenvalues --    0.03751   0.07465   0.07805   0.10132   0.11366
 Alpha virt. eigenvalues --    0.11442   0.15482   0.16145   0.16668   0.20125
 Alpha virt. eigenvalues --    0.20159   0.25550   0.32738   0.34610   0.34724

 Mulliken charges:
               1
     1  C   -0.076473
     2  C    0.001533
     3  N   -0.210790
     4  H    0.096489
     5  H    0.094044
     6  H    0.095197
 Sum of Mulliken charges =   0.00000

 Dipole moment (field-independent basis, Debye):
    X=              4.1471    Y=             -0.0162    Z=              0.0116  Tot=              4.1472
 Quadrupole moment (field-independent basis, Debye-Ang):
   XX=            -20.9054   YY=            -17.7874   ZZ=            -17.8226
   XY=              0.0682   XZ=             -0.0133   YZ=              0.0153

 Normal termination of Gaussian 09 at Thu Aug 27 00:01:16 2020.
