 Gaussian 09, Revision D.01,
 Gaussian 09:  ES64L-G09RevD.01 24-Apr-2013

 --------------------
 #p B2PLYPD3/Def2QZVP
 --------------------

 ------------
 cyanomethane
 ------------
 Symbolic Z-matrix:
 Charge =  0 Multiplicity = 1

                         Standard orientation:
 ---------------------------------------------------------------------
 Center     Atomic      Atomic             Coordinates (Angstroms)
 Number     Number       Type             X           Y           Z
 ---------------------------------------------------------------------
      1          6           0       -1.182913    0.014045   -0.003251
      2          6           0        0.279291   -0.023344   -0.028652
      3          7           0        1.424236    0.004724    0.016429
      4          1           0       -1.436493    0.916158   -0.443547
      5          1           0       -1.534207   -0.032198    1.025148
      6          1           0       -1.577221   -0.861238   -0.505185
 ---------------------------------------------------------------------

 SCF Done:  E(RB2PLYPD3) =  -132.533302054     A.U. after   12 cycles
 E2(B2PLYPD3) =    -0.1795161673D+00 E(B2PLYPD3) =    -0.13271281822085D+03

 The electronic state is 1-A.
 Alpha  occ. eigenvalues --  -14.83818 -10.66539 -10.65851  -1.04373  -0.89721
 Alpha  occ. eigenvalues --   -0.59124  -0.55851  -0.53566  -0.44617  -0.39357
 Alpha  occ. eigenvalues --   -0.39137
 Alpha virt. eigenvalues --    0.03840   0.08093   0.08796   0.10225   0.11324
 Alpha virt. eigenvalues --    0.11608   0.15338   0.16038   0.16287   0.20020
 Alpha virt. eigenvalues --    0.20114   0.25301   0.32867   0.34383   0.35502

 Mulliken charges:
               1
     1  C   -0.088104
     2  C   -0.005994
     3  N   -0.203531
     4  H    0.105392
     5  H    0.095488
     6  H    0.096748
 Sum of Mulliken charges =   0.00000

 Dipole moment (field-independent basis, Debye):
    X=             -4.1054    Y=             -0.0084    Z=             -0.0084  Tot=              4.1054
 Quadrupole moment (field-independent basis, Debye-Ang):
   XX=            -21.1268   YY=            -17.5443   ZZ=            -17.7465
   XY=              0.0891   XZ=             -0.1540   YZ=             -0.0502

 Normal termination of Gaussian 09 at Wed Aug 26 15:20:51 2020.
