 Gaussian 09, Revision D.01,
 Gaussian 09:  ES64L-G09RevD.01 24-Apr-2013

 --------------------
 #p B2PLYPD3/Def2QZVP
 --------------------

 ------------
 cyanomethane
 ------------
 Symbolic Z-matrix:
 Charge =  0 Multiplicity = 1

                         Standard orientation:
 ---------------------------------------------------------------------
 Center     Atomic      Atomic             Coordinates (Angstroms)
 Number     Number       Type             X           Y           Z
 ---------------------------------------------------------------------
      1          6           0        1.212262   -0.031494    0.012999
      2          6           0       -0.278935   -0.004578   -0.036992
      3          7           0       -1.445674    0.015715    0.020743
      4          1           0        1.373162   -0.842325   -0.586803
      5          1           0        1.531074   -0.051651    1.027437
      6          1           0        1.615522    1.000401   -0.441875
 ---------------------------------------------------------------------

 SCF Done:  E(RB2PLYPD3) =  -132.517798924     A.U. after   12 cycles
 E2(B2PLYPD3) =    -0.1820715319D+00 E(B2PLYPD3) =    -0.13269987045550D+03

 The electronic state is 1-A.
 Alpha  occ. eigenvalues --  -14.84439 -10.67750 -10.66598  -1.03408  -0.89154
 Alpha  occ. eigenvalues --   -0.58490  -0.56392  -0.51922  -0.44549  -0.38899
 Alpha  occ. eigenvalues --   -0.38488
 Alpha virt. eigenvalues --    0.03462   0.07003   0.08942   0.10109   0.10752
 Alpha virt. eigenvalues --    0.11438   0.14707   0.15418   0.16208   0.20074
 Alpha virt. eigenvalues --    0.20216   0.24657   0.31121   0.33356   0.35750

 Mulliken charges:
               1
     1  C   -0.106881
     2  C   -0.002619
     3  N   -0.213861
     4  H    0.118435
     5  H    0.110710
     6  H    0.094216
 Sum of Mulliken charges =   0.00000

 Dipole moment (field-independent basis, Debye):
    X=              4.1191    Y=             -0.0235    Z=              0.0006  Tot=              4.1191
 Quadrupole moment (field-independent basis, Debye-Ang):
   XX=            -21.4474   YY=            -17.7067   ZZ=            -17.7415
   XY=              0.2761   XZ=              0.2206   YZ=              0.1517

 Normal termination of Gaussian 09 at Wed Aug 26 23:36:07 2020.
