 Gaussian 09, Revision D.01,
 Gaussian 09:  ES64L-G09RevD.01 24-Apr-2013

 --------------------
 #p B2PLYPD3/Def2QZVP
 --------------------

 ------------
 cyanomethane
 ------------
 Symbolic Z-matrix:
 Charge =  0 Multiplicity = 1

                         Standard orientation:
 ---------------------------------------------------------------------
 Center     Atomic      Atomic             Coordinates (Angstroms)
 Number     Number       Type             X           Y           Z
 ---------------------------------------------------------------------
      1          6           0        1.157946   -0.012354   -0.015503
      2          6           0       -0.278729    0.026827    0.009425
      3          7           0       -1.433112   -0.014711   -0.002941
      4          1           0        1.556490    0.982178   -0.052286
      5          1           0        1.599733   -0.550614   -0.693939
      6          1           0        1.600256   -0.415428    0.803286
 ---------------------------------------------------------------------

 SCF Done:  E(RB2PLYPD3) =  -132.516090910     A.U. after   11 cycles
 E2(B2PLYPD3) =    -0.1800811951D+00 E(B2PLYPD3) =    -0.13269617210553D+03

 The electronic state is 1-A.
 Alpha  occ. eigenvalues --  -14.84415 -10.66456 -10.64623  -1.04309  -0.91246
 Alpha  occ. eigenvalues --   -0.63231  -0.55072  -0.53683  -0.45062  -0.39331
 Alpha  occ. eigenvalues --   -0.39108
 Alpha virt. eigenvalues --    0.03989   0.08141   0.08282   0.10052   0.11384
 Alpha virt. eigenvalues --    0.11729   0.15715   0.16718   0.17539   0.20037
 Alpha virt. eigenvalues --    0.20298   0.25790   0.33265   0.35075   0.36174

 Mulliken charges:
               1
     1  C   -0.035566
     2  C    0.014599
     3  N   -0.207720
     4  H    0.078870
     5  H    0.079290
     6  H    0.070527
 Sum of Mulliken charges =   0.00000

 Dipole moment (field-independent basis, Debye):
    X=              4.1706    Y=             -0.0221    Z=              0.0346  Tot=              4.1708
 Quadrupole moment (field-independent basis, Debye-Ang):
   XX=            -20.2901   YY=            -17.6065   ZZ=            -18.0173
   XY=             -0.2126   XZ=              0.0636   YZ=              0.0423

 Normal termination of Gaussian 09 at Wed Aug 26 21:56:36 2020.
