 Gaussian 09, Revision D.01,
 Gaussian 09:  ES64L-G09RevD.01 24-Apr-2013

 --------------------
 #p B2PLYPD3/Def2QZVP
 --------------------

 ------------
 cyanomethane
 ------------
 Symbolic Z-matrix:
 Charge =  0 Multiplicity = 1

                         Standard orientation:
 ---------------------------------------------------------------------
 Center     Atomic      Atomic             Coordinates (Angstroms)
 Number     Number       Type             X           Y           Z
 ---------------------------------------------------------------------
      1          6           0       -1.167795   -0.005079   -0.001209
      2          6           0        0.279600    0.014814    0.000102
      3          7           0        1.430049   -0.002981    0.000654
      4          1           0       -1.544625   -0.422768    0.926108
      5          1           0       -1.519662   -0.624920   -0.810315
      6          1           0       -1.616884    1.010142   -0.113732
 ---------------------------------------------------------------------

 SCF Done:  E(RB2PLYPD3) =  -132.535259625     A.U. after   11 cycles
 E2(B2PLYPD3) =    -0.1801899147D+00 E(B2PLYPD3) =    -0.13271544953993D+03

 The electronic state is 1-A.
 Alpha  occ. eigenvalues --  -14.84116 -10.67084 -10.66147  -1.04328  -0.89273
 Alpha  occ. eigenvalues --   -0.60104  -0.54052  -0.53371  -0.44835  -0.39147
 Alpha  occ. eigenvalues --   -0.39110
 Alpha virt. eigenvalues --    0.03757   0.07636   0.08025   0.10174   0.11566
 Alpha virt. eigenvalues --    0.11604   0.15506   0.16327   0.16667   0.20066
 Alpha virt. eigenvalues --    0.20085   0.25547   0.32770   0.34577   0.34748

 Mulliken charges:
               1
     1  C   -0.080129
     2  C   -0.000623
     3  N   -0.203857
     4  H    0.095062
     5  H    0.096753
     6  H    0.092793
 Sum of Mulliken charges =   0.00000

 Dipole moment (field-independent basis, Debye):
    X=             -4.1213    Y=             -0.0135    Z=              0.0021  Tot=              4.1213
 Quadrupole moment (field-independent basis, Debye-Ang):
   XX=            -20.9088   YY=            -17.7452   ZZ=            -17.7831
   XY=             -0.0155   XZ=             -0.0219   YZ=              0.0147

 Normal termination of Gaussian 09 at Wed Aug 26 09:36:19 2020.
