 Gaussian 09, Revision D.01,
 Gaussian 09:  ES64L-G09RevD.01 24-Apr-2013

 --------------------
 #p B2PLYPD3/Def2QZVP
 --------------------

 ------------
 cyanomethane
 ------------
 Symbolic Z-matrix:
 Charge =  0 Multiplicity = 1

                         Standard orientation:
 ---------------------------------------------------------------------
 Center     Atomic      Atomic             Coordinates (Angstroms)
 Number     Number       Type             X           Y           Z
 ---------------------------------------------------------------------
      1          6           0        1.177851    0.006295    0.010384
      2          6           0       -0.290026   -0.037710   -0.002079
      3          7           0       -1.439603    0.022600    0.002452
      4          1           0        1.622532    1.060618   -0.149497
      5          1           0        1.528762   -0.629697   -0.831023
      6          1           0        1.598976   -0.400628    0.913526
 ---------------------------------------------------------------------

 SCF Done:  E(RB2PLYPD3) =  -132.531119438     A.U. after   12 cycles
 E2(B2PLYPD3) =    -0.1806550678D+00 E(B2PLYPD3) =    -0.13271177450612D+03

 The electronic state is 1-A.
 Alpha  occ. eigenvalues --  -14.84256 -10.67937 -10.66364  -1.04320  -0.88416
 Alpha  occ. eigenvalues --   -0.59762  -0.53452  -0.52459  -0.44896  -0.39284
 Alpha  occ. eigenvalues --   -0.39092
 Alpha virt. eigenvalues --    0.03484   0.07219   0.08046   0.10141   0.11440
 Alpha virt. eigenvalues --    0.11605   0.15348   0.15918   0.17242   0.20025
 Alpha virt. eigenvalues --    0.20108   0.25292   0.32419   0.33724   0.34628

 Mulliken charges:
               1
     1  C   -0.087046
     2  C    0.001826
     3  N   -0.202394
     4  H    0.095187
     5  H    0.094269
     6  H    0.098157
 Sum of Mulliken charges =   0.00000

 Dipole moment (field-independent basis, Debye):
    X=              4.1176    Y=             -0.0592    Z=             -0.0050  Tot=              4.1181
 Quadrupole moment (field-independent basis, Debye-Ang):
   XX=            -20.9009   YY=            -17.7848   ZZ=            -17.8813
   XY=              0.1262   XZ=              0.0503   YZ=             -0.0201

 Normal termination of Gaussian 09 at Wed Aug 26 11:53:21 2020.
