 Gaussian 09, Revision D.01,
 Gaussian 09:  ES64L-G09RevD.01 24-Apr-2013

 --------------------
 #p B2PLYPD3/Def2QZVP
 --------------------

 ------------
 cyanomethane
 ------------
 Symbolic Z-matrix:
 Charge =  0 Multiplicity = 1

                         Standard orientation:
 ---------------------------------------------------------------------
 Center     Atomic      Atomic             Coordinates (Angstroms)
 Number     Number       Type             X           Y           Z
 ---------------------------------------------------------------------
      1          6           0       -1.184984   -0.015182    0.018261
      2          6           0        0.290987    0.041706   -0.004015
      3          7           0        1.425123   -0.015565   -0.001846
      4          1           0       -1.492634   -0.283332    0.945196
      5          1           0       -1.511535   -0.764931   -0.729471
      6          1           0       -1.607707    0.998077   -0.288278
 ---------------------------------------------------------------------

 SCF Done:  E(RB2PLYPD3) =  -132.530218049     A.U. after   12 cycles
 E2(B2PLYPD3) =    -0.1788645665D+00 E(B2PLYPD3) =    -0.13270908261508D+03

 The electronic state is 1-A.
 Alpha  occ. eigenvalues --  -14.83609 -10.67166 -10.65672  -1.04813  -0.89024
 Alpha  occ. eigenvalues --   -0.59118  -0.55032  -0.52863  -0.44635  -0.39725
 Alpha  occ. eigenvalues --   -0.39417
 Alpha virt. eigenvalues --    0.03728   0.07927   0.08844   0.10213   0.11443
 Alpha virt. eigenvalues --    0.11728   0.15312   0.16213   0.16427   0.19951
 Alpha virt. eigenvalues --    0.20026   0.25108   0.32353   0.33977   0.35317

 Mulliken charges:
               1
     1  C   -0.094239
     2  C   -0.006483
     3  N   -0.196114
     4  H    0.105325
     5  H    0.097656
     6  H    0.093855
 Sum of Mulliken charges =   0.00000

 Dipole moment (field-independent basis, Debye):
    X=             -4.0853    Y=              0.0028    Z=              0.0098  Tot=              4.0854
 Quadrupole moment (field-independent basis, Debye-Ang):
   XX=            -21.1014   YY=            -17.6491   ZZ=            -17.6752
   XY=              0.0578   XZ=              0.0322   YZ=             -0.0304

 Normal termination of Gaussian 09 at Wed Aug 26 12:16:48 2020.
