 Gaussian 09, Revision D.01,
 Gaussian 09:  ES64L-G09RevD.01 24-Apr-2013

 --------------------
 #p B2PLYPD3/Def2QZVP
 --------------------

 ------------
 cyanomethane
 ------------
 Symbolic Z-matrix:
 Charge =  0 Multiplicity = 1

                         Standard orientation:
 ---------------------------------------------------------------------
 Center     Atomic      Atomic             Coordinates (Angstroms)
 Number     Number       Type             X           Y           Z
 ---------------------------------------------------------------------
      1          6           0        1.179260   -0.004684   -0.002209
      2          6           0       -0.278180    0.000943    0.019535
      3          7           0       -1.427022    0.000531   -0.010599
      4          1           0        1.537365    0.958163   -0.347132
      5          1           0        1.527047   -0.763261   -0.661557
      6          1           0        1.518259   -0.176178    0.978925
 ---------------------------------------------------------------------

 SCF Done:  E(RB2PLYPD3) =  -132.535204959     A.U. after   11 cycles
 E2(B2PLYPD3) =    -0.1796934438D+00 E(B2PLYPD3) =    -0.13271489840247D+03

 The electronic state is 1-A.
 Alpha  occ. eigenvalues --  -14.83949 -10.66405 -10.65978  -1.04281  -0.89795
 Alpha  occ. eigenvalues --   -0.59570  -0.55032  -0.54238  -0.44686  -0.39238
 Alpha  occ. eigenvalues --   -0.39155
 Alpha virt. eigenvalues --    0.03872   0.08188   0.08562   0.10201   0.11381
 Alpha virt. eigenvalues --    0.11517   0.15453   0.16049   0.16437   0.20063
 Alpha virt. eigenvalues --    0.20106   0.25351   0.32979   0.34757   0.35181

 Mulliken charges:
               1
     1  C   -0.081658
     2  C   -0.004490
     3  N   -0.204773
     4  H    0.095379
     5  H    0.097891
     6  H    0.097651
 Sum of Mulliken charges =   0.00000

 Dipole moment (field-independent basis, Debye):
    X=              4.1194    Y=             -0.0007    Z=              0.0173  Tot=              4.1195
 Quadrupole moment (field-independent basis, Debye-Ang):
   XX=            -21.0356   YY=            -17.6845   ZZ=            -17.6580
   XY=              0.0139   XZ=             -0.0650   YZ=              0.0105

 Normal termination of Gaussian 09 at Wed Aug 26 10:04:34 2020.
