 Gaussian 09, Revision D.01,
 Gaussian 09:  ES64L-G09RevD.01 24-Apr-2013

 --------------------
 #p B2PLYPD3/Def2QZVP
 --------------------

 ------------
 cyanomethane
 ------------
 Symbolic Z-matrix:
 Charge =  0 Multiplicity = 1

                         Standard orientation:
 ---------------------------------------------------------------------
 Center     Atomic      Atomic             Coordinates (Angstroms)
 Number     Number       Type             X           Y           Z
 ---------------------------------------------------------------------
      1          6           0        1.175022    0.005748   -0.027136
      2          6           0       -0.275790    0.019283   -0.026117
      3          7           0       -1.427527   -0.013681    0.020394
      4          1           0        1.596129   -0.257876    1.007146
      5          1           0        1.477472    0.946277   -0.207920
      6          1           0        1.523696   -0.742815   -0.622470
 ---------------------------------------------------------------------

 SCF Done:  E(RB2PLYPD3) =  -132.523365849     A.U. after   11 cycles
 E2(B2PLYPD3) =    -0.1801059547D+00 E(B2PLYPD3) =    -0.13270347180373D+03

 The electronic state is 1-A.
 Alpha  occ. eigenvalues --  -14.84114 -10.66120 -10.66002  -1.04194  -0.90312
 Alpha  occ. eigenvalues --   -0.60115  -0.57523  -0.52182  -0.44766  -0.39402
 Alpha  occ. eigenvalues --   -0.38762
 Alpha virt. eigenvalues --    0.03682   0.07628   0.09052   0.10171   0.10988
 Alpha virt. eigenvalues --    0.11822   0.15498   0.16228   0.16591   0.19975
 Alpha virt. eigenvalues --    0.20209   0.25456   0.32494   0.33896   0.36477

 Mulliken charges:
               1
     1  C   -0.074233
     2  C   -0.001699
     3  N   -0.206594
     4  H    0.080714
     5  H    0.101910
     6  H    0.099902
 Sum of Mulliken charges =   0.00000

 Dipole moment (field-independent basis, Debye):
    X=              4.1229    Y=              0.0130    Z=             -0.0175  Tot=              4.1230
 Quadrupole moment (field-independent basis, Debye-Ang):
   XX=            -20.9251   YY=            -17.5071   ZZ=            -17.8977
   XY=             -0.1465   XZ=              0.2238   YZ=              0.0698

 Normal termination of Gaussian 09 at Wed Aug 26 14:11:07 2020.
