 Gaussian 09, Revision D.01,
 Gaussian 09:  ES64L-G09RevD.01 24-Apr-2013

 --------------------
 #p B2PLYPD3/Def2QZVP
 --------------------

 ------------
 cyanomethane
 ------------
 Symbolic Z-matrix:
 Charge =  0 Multiplicity = 1

                         Standard orientation:
 ---------------------------------------------------------------------
 Center     Atomic      Atomic             Coordinates (Angstroms)
 Number     Number       Type             X           Y           Z
 ---------------------------------------------------------------------
      1          6           0       -1.175622   -0.004559    0.006070
      2          6           0        0.283462    0.015069   -0.013820
      3          7           0        1.426883   -0.006729    0.004965
      4          1           0       -1.520052   -0.297335    0.966693
      5          1           0       -1.555068   -0.707417   -0.727109
      6          1           0       -1.560104    0.988795   -0.227841
 ---------------------------------------------------------------------

 SCF Done:  E(RB2PLYPD3) =  -132.536178405     A.U. after   11 cycles
 E2(B2PLYPD3) =    -0.1793938499D+00 E(B2PLYPD3) =    -0.13271557225540D+03

 The electronic state is 1-A.
 Alpha  occ. eigenvalues --  -14.83863 -10.66765 -10.65901  -1.04532  -0.89390
 Alpha  occ. eigenvalues --   -0.59705  -0.54353  -0.53899  -0.44729  -0.39372
 Alpha  occ. eigenvalues --   -0.39323
 Alpha virt. eigenvalues --    0.03831   0.08187   0.08317   0.10206   0.11540
 Alpha virt. eigenvalues --    0.11568   0.15458   0.16324   0.16494   0.20031
 Alpha virt. eigenvalues --    0.20058   0.25349   0.32904   0.34690   0.35021

 Mulliken charges:
               1
     1  C   -0.081689
     2  C   -0.004102
     3  N   -0.200929
     4  H    0.097383
     5  H    0.094899
     6  H    0.094436
 Sum of Mulliken charges =   0.00000

 Dipole moment (field-independent basis, Debye):
    X=             -4.1122    Y=              0.0041    Z=             -0.0011  Tot=              4.1122
 Quadrupole moment (field-independent basis, Debye-Ang):
   XX=            -20.9693   YY=            -17.6847   ZZ=            -17.7152
   XY=              0.0402   XZ=             -0.0135   YZ=             -0.0084

 Normal termination of Gaussian 09 at Thu Aug 27 00:12:53 2020.
