 Gaussian 09, Revision D.01,
 Gaussian 09:  ES64L-G09RevD.01 24-Apr-2013

 --------------------
 #p B2PLYPD3/Def2QZVP
 --------------------

 ------------
 cyanomethane
 ------------
 Symbolic Z-matrix:
 Charge =  0 Multiplicity = 1

                         Standard orientation:
 ---------------------------------------------------------------------
 Center     Atomic      Atomic             Coordinates (Angstroms)
 Number     Number       Type             X           Y           Z
 ---------------------------------------------------------------------
      1          6           0        1.197974    0.006512   -0.003837
      2          6           0       -0.294745   -0.051469   -0.007986
      3          7           0       -1.426532    0.031614    0.008272
      4          1           0        1.570281   -0.019631    1.018314
      5          1           0        1.554283    0.982655   -0.476255
      6          1           0        1.441789   -0.914583   -0.529026
 ---------------------------------------------------------------------

 SCF Done:  E(RB2PLYPD3) =  -132.529610370     A.U. after   12 cycles
 E2(B2PLYPD3) =    -0.1792232502D+00 E(B2PLYPD3) =    -0.13270883361998D+03

 The electronic state is 1-A.
 Alpha  occ. eigenvalues --  -14.83526 -10.67953 -10.65621  -1.04749  -0.88341
 Alpha  occ. eigenvalues --   -0.58184  -0.54381  -0.52803  -0.44516  -0.39553
 Alpha  occ. eigenvalues --   -0.39496
 Alpha virt. eigenvalues --    0.03518   0.07883   0.08838   0.10224   0.11352
 Alpha virt. eigenvalues --    0.11676   0.14953   0.15539   0.16817   0.19897
 Alpha virt. eigenvalues --    0.20079   0.24871   0.32477   0.33929   0.34464

 Mulliken charges:
               1
     1  C   -0.108066
     2  C   -0.008068
     3  N   -0.195472
     4  H    0.100489
     5  H    0.104284
     6  H    0.106834
 Sum of Mulliken charges =   0.00000

 Dipole moment (field-independent basis, Debye):
    X=              4.0718    Y=             -0.0519    Z=              0.0192  Tot=              4.0722
 Quadrupole moment (field-independent basis, Debye-Ang):
   XX=            -21.3281   YY=            -17.4565   ZZ=            -17.8317
   XY=              0.2698   XZ=              0.1951   YZ=              0.0335

 Normal termination of Gaussian 09 at Wed Aug 26 21:24:29 2020.
