 Gaussian 09, Revision D.01,
 Gaussian 09:  ES64L-G09RevD.01 24-Apr-2013

 --------------------
 #p B2PLYPD3/Def2QZVP
 --------------------

 ------------
 cyanomethane
 ------------
 Symbolic Z-matrix:
 Charge =  0 Multiplicity = 1

                         Standard orientation:
 ---------------------------------------------------------------------
 Center     Atomic      Atomic             Coordinates (Angstroms)
 Number     Number       Type             X           Y           Z
 ---------------------------------------------------------------------
      1          6           0       -1.171564    0.004978   -0.005538
      2          6           0        0.273303   -0.000301    0.020165
      3          7           0        1.430886   -0.000337   -0.010128
      4          1           0       -1.539865   -0.119958    0.982574
      5          1           0       -1.543171   -0.831931   -0.593654
      6          1           0       -1.543604    0.926186   -0.405786
 ---------------------------------------------------------------------

 SCF Done:  E(RB2PLYPD3) =  -132.534930160     A.U. after   11 cycles
 E2(B2PLYPD3) =    -0.1805613634D+00 E(B2PLYPD3) =    -0.13271549152315D+03

 The electronic state is 1-A.
 Alpha  occ. eigenvalues --  -14.84254 -10.66520 -10.66269  -1.04003  -0.89812
 Alpha  occ. eigenvalues --   -0.60141  -0.54651  -0.54039  -0.44802  -0.39001
 Alpha  occ. eigenvalues --   -0.38901
 Alpha virt. eigenvalues --    0.03828   0.07840   0.08143   0.10156   0.11386
 Alpha virt. eigenvalues --    0.11501   0.15524   0.16066   0.16615   0.20105
 Alpha virt. eigenvalues --    0.20138   0.25592   0.32966   0.34649   0.35047

 Mulliken charges:
               1
     1  C   -0.076524
     2  C   -0.000784
     3  N   -0.208646
     4  H    0.094034
     5  H    0.094650
     6  H    0.097270
 Sum of Mulliken charges =   0.00000

 Dipole moment (field-independent basis, Debye):
    X=             -4.1348    Y=             -0.0056    Z=              0.0272  Tot=              4.1348
 Quadrupole moment (field-independent basis, Debye-Ang):
   XX=            -20.9499   YY=            -17.6771   ZZ=            -17.7901
   XY=              0.0178   XZ=              0.0263   YZ=             -0.0191

 Normal termination of Gaussian 09 at Thu Aug 27 00:14:51 2020.
