 Gaussian 09, Revision D.01,
 Gaussian 09:  ES64L-G09RevD.01 24-Apr-2013

 --------------------
 #p B2PLYPD3/Def2QZVP
 --------------------

 ------------
 cyanomethane
 ------------
 Symbolic Z-matrix:
 Charge =  0 Multiplicity = 1

                         Standard orientation:
 ---------------------------------------------------------------------
 Center     Atomic      Atomic             Coordinates (Angstroms)
 Number     Number       Type             X           Y           Z
 ---------------------------------------------------------------------
      1          6           0       -1.209998   -0.003534   -0.005920
      2          6           0        0.277273    0.019873    0.035033
      3          7           0        1.448702   -0.021625   -0.010336
      4          1           0       -1.338849    1.018837   -0.259890
      5          1           0       -1.658893   -0.278357    0.898249
      6          1           0       -1.546824   -0.687140   -0.740683
 ---------------------------------------------------------------------

 SCF Done:  E(RB2PLYPD3) =  -132.525081477     A.U. after   13 cycles
 E2(B2PLYPD3) =    -0.1819487852D+00 E(B2PLYPD3) =    -0.13270703026178D+03

 The electronic state is 1-A.
 Alpha  occ. eigenvalues --  -14.84609 -10.66841 -10.66558  -1.03278  -0.89823
 Alpha  occ. eigenvalues --   -0.60050  -0.54851  -0.54218  -0.44642  -0.38772
 Alpha  occ. eigenvalues --   -0.38580
 Alpha virt. eigenvalues --    0.03809   0.07728   0.08676   0.10136   0.11060
 Alpha virt. eigenvalues --    0.11159   0.14633   0.15537   0.16762   0.20164
 Alpha virt. eigenvalues --    0.20224   0.24795   0.32283   0.34643   0.35264

 Mulliken charges:
               1
     1  C   -0.088458
     2  C    0.000207
     3  N   -0.216828
     4  H    0.107733
     5  H    0.097047
     6  H    0.100300
 Sum of Mulliken charges =   0.00000

 Dipole moment (field-independent basis, Debye):
    X=             -4.1652    Y=              0.0222    Z=              0.0123  Tot=              4.1653
 Quadrupole moment (field-independent basis, Debye-Ang):
   XX=            -21.1105   YY=            -17.6297   ZZ=            -17.8962
   XY=              0.3550   XZ=             -0.0827   YZ=             -0.0152

 Normal termination of Gaussian 09 at Wed Aug 26 16:33:46 2020.
