 Gaussian 09, Revision D.01,
 Gaussian 09:  ES64L-G09RevD.01 24-Apr-2013

 --------------------
 #p B2PLYPD3/Def2QZVP
 --------------------

 ------------
 cyanomethane
 ------------
 Symbolic Z-matrix:
 Charge =  0 Multiplicity = 1

                         Standard orientation:
 ---------------------------------------------------------------------
 Center     Atomic      Atomic             Coordinates (Angstroms)
 Number     Number       Type             X           Y           Z
 ---------------------------------------------------------------------
      1          6           0        1.188793   -0.016430    0.009045
      2          6           0       -0.275907    0.033271    0.004529
      3          7           0       -1.441859   -0.007405   -0.002652
      4          1           0        1.529515   -0.182439    0.982786
      5          1           0        1.638672    0.961079   -0.383750
      6          1           0        1.447517   -0.827847   -0.661913
 ---------------------------------------------------------------------

 SCF Done:  E(RB2PLYPD3) =  -132.530518297     A.U. after   12 cycles
 E2(B2PLYPD3) =    -0.1815861015D+00 E(B2PLYPD3) =    -0.13271210439831D+03

 The electronic state is 1-A.
 Alpha  occ. eigenvalues --  -14.84488 -10.67346 -10.66603  -1.03593  -0.89218
 Alpha  occ. eigenvalues --   -0.59346  -0.55047  -0.53064  -0.44753  -0.38861
 Alpha  occ. eigenvalues --   -0.38657
 Alpha virt. eigenvalues --    0.03686   0.07326   0.08173   0.10189   0.11175
 Alpha virt. eigenvalues --    0.11393   0.15180   0.15939   0.16300   0.20133
 Alpha virt. eigenvalues --    0.20142   0.25222   0.32067   0.34183   0.34965

 Mulliken charges:
               1
     1  C   -0.091725
     2  C    0.000120
     3  N   -0.212393
     4  H    0.104432
     5  H    0.094549
     6  H    0.105017
 Sum of Mulliken charges =   0.00000

 Dipole moment (field-independent basis, Debye):
    X=              4.1387    Y=             -0.0109    Z=              0.0108  Tot=              4.1387
 Quadrupole moment (field-independent basis, Debye-Ang):
   XX=            -21.1366   YY=            -17.7748   ZZ=            -17.7622
   XY=              0.0681   XZ=              0.0169   YZ=              0.0330

 Normal termination of Gaussian 09 at Wed Aug 26 11:39:57 2020.
