 Gaussian 09, Revision D.01,
 Gaussian 09:  ES64L-G09RevD.01 24-Apr-2013

 --------------------
 #p B2PLYPD3/Def2QZVP
 --------------------

 ------------
 cyanomethane
 ------------
 Symbolic Z-matrix:
 Charge =  0 Multiplicity = 1

                         Standard orientation:
 ---------------------------------------------------------------------
 Center     Atomic      Atomic             Coordinates (Angstroms)
 Number     Number       Type             X           Y           Z
 ---------------------------------------------------------------------
      1          6           0        1.152373    0.028676    0.015608
      2          6           0       -0.293726   -0.064542   -0.016756
      3          7           0       -1.417370    0.030997    0.013472
      4          1           0        1.668867   -0.443124    0.923608
      5          1           0        1.580669    1.059879   -0.135952
      6          1           0        1.520172   -0.618540   -0.875075
 ---------------------------------------------------------------------

 SCF Done:  E(RB2PLYPD3) =  -132.525569119     A.U. after   12 cycles
 E2(B2PLYPD3) =    -0.1793583457D+00 E(B2PLYPD3) =    -0.13270492746473D+03

 The electronic state is 1-A.
 Alpha  occ. eigenvalues --  -14.83642 -10.68504 -10.65643  -1.05367  -0.87960
 Alpha  occ. eigenvalues --   -0.59802  -0.52780  -0.51688  -0.44911  -0.39765
 Alpha  occ. eigenvalues --   -0.39299
 Alpha virt. eigenvalues --    0.03406   0.07206   0.07539   0.10037   0.11881
 Alpha virt. eigenvalues --    0.12103   0.15548   0.15687   0.18020   0.19898
 Alpha virt. eigenvalues --    0.20141   0.25996   0.32482   0.33098   0.34626

 Mulliken charges:
               1
     1  C   -0.097776
     2  C    0.003517
     3  N   -0.188787
     4  H    0.094309
     5  H    0.101304
     6  H    0.087434
 Sum of Mulliken charges =   0.00000

 Dipole moment (field-independent basis, Debye):
    X=              4.0416    Y=             -0.0621    Z=             -0.0398  Tot=              4.0423
 Quadrupole moment (field-independent basis, Debye-Ang):
   XX=            -20.8851   YY=            -17.7095   ZZ=            -17.9014
   XY=              0.1569   XZ=              0.1424   YZ=             -0.0512

 Normal termination of Gaussian 09 at Wed Aug 26 21:38:47 2020.
