 Gaussian 09, Revision D.01,
 Gaussian 09:  ES64L-G09RevD.01 24-Apr-2013

 --------------------
 #p B2PLYPD3/Def2QZVP
 --------------------

 ------------
 cyanomethane
 ------------
 Symbolic Z-matrix:
 Charge =  0 Multiplicity = 1

                         Standard orientation:
 ---------------------------------------------------------------------
 Center     Atomic      Atomic             Coordinates (Angstroms)
 Number     Number       Type             X           Y           Z
 ---------------------------------------------------------------------
      1          6           0       -1.186301    0.006315    0.029216
      2          6           0        0.265546    0.003968   -0.039420
      3          7           0        1.443443   -0.003869    0.012720
      4          1           0       -1.580971   -0.805581   -0.630988
      5          1           0       -1.535655    0.935096   -0.372208
      6          1           0       -1.462944   -0.164126    0.975379
 ---------------------------------------------------------------------

 SCF Done:  E(RB2PLYPD3) =  -132.525824002     A.U. after   12 cycles
 E2(B2PLYPD3) =    -0.1823609785D+00 E(B2PLYPD3) =    -0.13270818498097D+03

 The electronic state is 1-A.
 Alpha  occ. eigenvalues --  -14.84804 -10.66876 -10.66392  -1.03148  -0.90138
 Alpha  occ. eigenvalues --   -0.59947  -0.56324  -0.53410  -0.44801  -0.38631
 Alpha  occ. eigenvalues --   -0.38310
 Alpha virt. eigenvalues --    0.03823   0.07432   0.08004   0.10111   0.11027
 Alpha virt. eigenvalues --    0.11300   0.15364   0.15844   0.16267   0.20162
 Alpha virt. eigenvalues --    0.20250   0.25495   0.32324   0.34060   0.35711

 Mulliken charges:
               1
     1  C   -0.080348
     2  C    0.001649
     3  N   -0.218880
     4  H    0.091570
     5  H    0.099275
     6  H    0.106735
 Sum of Mulliken charges =   0.00000

 Dipole moment (field-independent basis, Debye):
    X=             -4.1581    Y=              0.0045    Z=             -0.0157  Tot=              4.1582
 Quadrupole moment (field-independent basis, Debye-Ang):
   XX=            -21.0754   YY=            -17.7971   ZZ=            -17.7275
   XY=              0.0442   XZ=              0.0315   YZ=             -0.0726

 Normal termination of Gaussian 09 at Wed Aug 26 10:52:43 2020.
