 Gaussian 09, Revision D.01,
 Gaussian 09:  ES64L-G09RevD.01 24-Apr-2013

 --------------------
 #p B2PLYPD3/Def2QZVP
 --------------------

 ------------
 cyanomethane
 ------------
 Symbolic Z-matrix:
 Charge =  0 Multiplicity = 1

                         Standard orientation:
 ---------------------------------------------------------------------
 Center     Atomic      Atomic             Coordinates (Angstroms)
 Number     Number       Type             X           Y           Z
 ---------------------------------------------------------------------
      1          6           0       -1.146271   -0.028040   -0.019064
      2          6           0        0.276172    0.046132    0.019404
      3          7           0        1.423370   -0.018566   -0.014025
      4          1           0       -1.602327   -0.826054   -0.526478
      5          1           0       -1.647873    0.920918   -0.401832
      6          1           0       -1.492796   -0.073451    1.024447
 ---------------------------------------------------------------------

 SCF Done:  E(RB2PLYPD3) =  -132.529122042     A.U. after   12 cycles
 E2(B2PLYPD3) =    -0.1804598751D+00 E(B2PLYPD3) =    -0.13270958191689D+03

 The electronic state is 1-A.
 Alpha  occ. eigenvalues --  -14.84203 -10.66905 -10.66163  -1.04538  -0.89547
 Alpha  occ. eigenvalues --   -0.61459  -0.54051  -0.52423  -0.45007  -0.39244
 Alpha  occ. eigenvalues --   -0.38850
 Alpha virt. eigenvalues --    0.03711   0.07142   0.07754   0.09974   0.11687
 Alpha virt. eigenvalues --    0.11920   0.15671   0.15940   0.17817   0.20097
 Alpha virt. eigenvalues --    0.20235   0.26209   0.32762   0.33864   0.35425

 Mulliken charges:
               1
     1  C   -0.070871
     2  C    0.007055
     3  N   -0.203164
     4  H    0.096870
     5  H    0.083321
     6  H    0.086788
 Sum of Mulliken charges =   0.00000

 Dipole moment (field-independent basis, Debye):
    X=             -4.1088    Y=              0.0194    Z=              0.0564  Tot=              4.1092
 Quadrupole moment (field-independent basis, Debye-Ang):
   XX=            -20.6815   YY=            -17.7937   ZZ=            -17.8678
   XY=              0.0730   XZ=              0.0917   YZ=              0.0714

 Normal termination of Gaussian 09 at Wed Aug 26 18:30:23 2020.
