 Gaussian 09, Revision D.01,
 Gaussian 09:  ES64L-G09RevD.01 24-Apr-2013

 --------------------
 #p B2PLYPD3/Def2QZVP
 --------------------

 ------------
 cyanomethane
 ------------
 Symbolic Z-matrix:
 Charge =  0 Multiplicity = 1

                         Standard orientation:
 ---------------------------------------------------------------------
 Center     Atomic      Atomic             Coordinates (Angstroms)
 Number     Number       Type             X           Y           Z
 ---------------------------------------------------------------------
      1          6           0       -1.183900    0.022094    0.009697
      2          6           0        0.284408    0.048454   -0.002846
      3          7           0        1.447902   -0.041792    0.003690
      4          1           0       -1.387460    0.984565   -0.114337
      5          1           0       -1.702493   -0.469604    0.816612
      6          1           0       -1.648413   -0.645699   -0.769210
 ---------------------------------------------------------------------

 SCF Done:  E(RB2PLYPD3) =  -132.514361744     A.U. after   12 cycles
 E2(B2PLYPD3) =    -0.1819253173D+00 E(B2PLYPD3) =    -0.13269628706083D+03

 The electronic state is 1-A.
 Alpha  occ. eigenvalues --  -14.84735 -10.66864 -10.66491  -1.03739  -0.89867
 Alpha  occ. eigenvalues --   -0.61422  -0.56520  -0.50711  -0.44975  -0.39141
 Alpha  occ. eigenvalues --   -0.38521
 Alpha virt. eigenvalues --    0.03542   0.06701   0.08744   0.09806   0.10841
 Alpha virt. eigenvalues --    0.11962   0.15017   0.16442   0.17377   0.19823
 Alpha virt. eigenvalues --    0.20523   0.25270   0.32433   0.33830   0.35928

 Mulliken charges:
               1
     1  C   -0.068484
     2  C    0.005879
     3  N   -0.211035
     4  H    0.104496
     5  H    0.088006
     6  H    0.081139
 Sum of Mulliken charges =   0.00000

 Dipole moment (field-independent basis, Debye):
    X=             -4.1707    Y=             -0.0022    Z=             -0.0009  Tot=              4.1707
 Quadrupole moment (field-independent basis, Debye-Ang):
   XX=            -20.6080   YY=            -17.5067   ZZ=            -18.3008
   XY=              0.6229   XZ=             -0.0733   YZ=             -0.0744

 Normal termination of Gaussian 09 at Wed Aug 26 21:50:34 2020.
