 Gaussian 09, Revision D.01,
 Gaussian 09:  ES64L-G09RevD.01 24-Apr-2013

 --------------------
 #p B2PLYPD3/Def2QZVP
 --------------------

 ------------
 cyanomethane
 ------------
 Symbolic Z-matrix:
 Charge =  0 Multiplicity = 1

                         Standard orientation:
 ---------------------------------------------------------------------
 Center     Atomic      Atomic             Coordinates (Angstroms)
 Number     Number       Type             X           Y           Z
 ---------------------------------------------------------------------
      1          6           0       -1.162193    0.015690    0.005236
      2          6           0        0.269083    0.026069    0.006788
      3          7           0        1.433925   -0.019195   -0.001512
      4          1           0       -1.500672    0.949116   -0.263593
      5          1           0       -1.609212   -0.320456    0.939941
      6          1           0       -1.568935   -0.744851   -0.737909
 ---------------------------------------------------------------------

 SCF Done:  E(RB2PLYPD3) =  -132.529025297     A.U. after   11 cycles
 E2(B2PLYPD3) =    -0.1815242904D+00 E(B2PLYPD3) =    -0.13271054958728D+03

 The electronic state is 1-A.
 Alpha  occ. eigenvalues --  -14.84550 -10.66732 -10.66537  -1.03788  -0.89851
 Alpha  occ. eigenvalues --   -0.60745  -0.55605  -0.52326  -0.44934  -0.38920
 Alpha  occ. eigenvalues --   -0.38478
 Alpha virt. eigenvalues --    0.03657   0.06967   0.08121   0.10089   0.11156
 Alpha virt. eigenvalues --    0.11793   0.15573   0.16267   0.16742   0.20045
 Alpha virt. eigenvalues --    0.20266   0.25819   0.32774   0.33755   0.35480

 Mulliken charges:
               1
     1  C   -0.072612
     2  C    0.002742
     3  N   -0.211352
     4  H    0.100682
     5  H    0.092882
     6  H    0.087658
 Sum of Mulliken charges =   0.00000

 Dipole moment (field-independent basis, Debye):
    X=             -4.1445    Y=              0.0144    Z=              0.0019  Tot=              4.1445
 Quadrupole moment (field-independent basis, Debye-Ang):
   XX=            -20.8476   YY=            -17.7032   ZZ=            -17.9164
   XY=              0.2070   XZ=             -0.0303   YZ=             -0.0882

 Normal termination of Gaussian 09 at Wed Aug 26 10:52:21 2020.
