 Gaussian 09, Revision D.01,
 Gaussian 09:  ES64L-G09RevD.01 24-Apr-2013

 --------------------
 #p B2PLYPD3/Def2QZVP
 --------------------

 ------------
 cyanomethane
 ------------
 Symbolic Z-matrix:
 Charge =  0 Multiplicity = 1

                         Standard orientation:
 ---------------------------------------------------------------------
 Center     Atomic      Atomic             Coordinates (Angstroms)
 Number     Number       Type             X           Y           Z
 ---------------------------------------------------------------------
      1          6           0        1.171469   -0.001900   -0.000313
      2          6           0       -0.281699   -0.010132    0.009512
      3          7           0       -1.431087    0.010345   -0.007280
      4          1           0        1.631370    0.897043   -0.506806
      5          1           0        1.519666   -0.895591   -0.510747
      6          1           0        1.527951   -0.001669    1.013321
 ---------------------------------------------------------------------

 SCF Done:  E(RB2PLYPD3) =  -132.534155414     A.U. after   12 cycles
 E2(B2PLYPD3) =    -0.1801908884D+00 E(B2PLYPD3) =    -0.13271434630222D+03

 The electronic state is 1-A.
 Alpha  occ. eigenvalues --  -14.84091 -10.67261 -10.66137  -1.04347  -0.89119
 Alpha  occ. eigenvalues --   -0.59841  -0.54318  -0.52961  -0.44816  -0.39205
 Alpha  occ. eigenvalues --   -0.39106
 Alpha virt. eigenvalues --    0.03690   0.07465   0.08248   0.10174   0.11488
 Alpha virt. eigenvalues --    0.11648   0.15456   0.16034   0.16903   0.20042
 Alpha virt. eigenvalues --    0.20112   0.25449   0.32710   0.34352   0.34750

 Mulliken charges:
               1
     1  C   -0.083972
     2  C   -0.001169
     3  N   -0.203217
     4  H    0.093261
     5  H    0.097980
     6  H    0.097116
 Sum of Mulliken charges =   0.00000

 Dipole moment (field-independent basis, Debye):
    X=              4.1176    Y=             -0.0247    Z=              0.0254  Tot=              4.1177
 Quadrupole moment (field-independent basis, Debye-Ang):
   XX=            -20.9457   YY=            -17.7445   ZZ=            -17.7815
   XY=              0.1220   XZ=             -0.0467   YZ=              0.0387

 Normal termination of Gaussian 09 at Wed Aug 26 21:05:48 2020.
