 Gaussian 09, Revision D.01,
 Gaussian 09:  ES64L-G09RevD.01 24-Apr-2013

 --------------------
 #p B2PLYPD3/Def2QZVP
 --------------------

 ------------
 cyanomethane
 ------------
 Symbolic Z-matrix:
 Charge =  0 Multiplicity = 1

                         Standard orientation:
 ---------------------------------------------------------------------
 Center     Atomic      Atomic             Coordinates (Angstroms)
 Number     Number       Type             X           Y           Z
 ---------------------------------------------------------------------
      1          6           0        1.141782   -0.032613   -0.003953
      2          6           0       -0.258903    0.014695   -0.030214
      3          7           0       -1.431071    0.000737    0.019370
      4          1           0        1.627025    1.058064   -0.107274
      5          1           0        1.502581   -0.594360   -0.768846
      6          1           0        1.590617   -0.361362    0.945530
 ---------------------------------------------------------------------

 SCF Done:  E(RB2PLYPD3) =  -132.519871630     A.U. after   12 cycles
 E2(B2PLYPD3) =    -0.1826062904D+00 E(B2PLYPD3) =    -0.13270247792003D+03

 The electronic state is 1-A.
 Alpha  occ. eigenvalues --  -14.84814 -10.66969 -10.66692  -1.03641  -0.90089
 Alpha  occ. eigenvalues --   -0.61599  -0.55573  -0.51509  -0.45079  -0.38678
 Alpha  occ. eigenvalues --   -0.38018
 Alpha virt. eigenvalues --    0.03476   0.06034   0.07707   0.09964   0.11250
 Alpha virt. eigenvalues --    0.11997   0.15751   0.16252   0.16984   0.20100
 Alpha virt. eigenvalues --    0.20322   0.26348   0.31695   0.33937   0.35362

 Mulliken charges:
               1
     1  C   -0.071354
     2  C    0.007305
     3  N   -0.214021
     4  H    0.081612
     5  H    0.102324
     6  H    0.094133
 Sum of Mulliken charges =   0.00000

 Dipole moment (field-independent basis, Debye):
    X=              4.1398    Y=             -0.0244    Z=             -0.0126  Tot=              4.1399
 Quadrupole moment (field-independent basis, Debye-Ang):
   XX=            -20.7831   YY=            -17.9146   ZZ=            -17.8287
   XY=              0.0467   XZ=              0.1888   YZ=              0.1108

 Normal termination of Gaussian 09 at Wed Aug 26 16:25:46 2020.
