 Gaussian 09, Revision D.01,
 Gaussian 09:  ES64L-G09RevD.01 24-Apr-2013

 --------------------
 #p B2PLYPD3/Def2QZVP
 --------------------

 ------------
 cyanomethane
 ------------
 Symbolic Z-matrix:
 Charge =  0 Multiplicity = 1

                         Standard orientation:
 ---------------------------------------------------------------------
 Center     Atomic      Atomic             Coordinates (Angstroms)
 Number     Number       Type             X           Y           Z
 ---------------------------------------------------------------------
      1          6           0       -1.177875    0.004269    0.011461
      2          6           0        0.296120   -0.025968    0.051150
      3          7           0        1.440025   -0.001887   -0.027277
      4          1           0       -1.760764   -0.876726   -0.591119
      5          1           0       -1.410636    0.975157   -0.568936
      6          1           0       -1.618245    0.044978    0.975322
 ---------------------------------------------------------------------

 SCF Done:  E(RB2PLYPD3) =  -132.520395780     A.U. after   12 cycles
 E2(B2PLYPD3) =    -0.1808738909D+00 E(B2PLYPD3) =    -0.13270126967120D+03

 The electronic state is 1-A.
 Alpha  occ. eigenvalues --  -14.84186 -10.68825 -10.66382  -1.04542  -0.87805
 Alpha  occ. eigenvalues --   -0.59631  -0.53466  -0.50876  -0.44911  -0.39456
 Alpha  occ. eigenvalues --   -0.38985
 Alpha virt. eigenvalues --    0.03135   0.06426   0.08198   0.10272   0.11332
 Alpha virt. eigenvalues --    0.11984   0.15033   0.15962   0.17484   0.19928
 Alpha virt. eigenvalues --    0.20204   0.25160   0.31325   0.33050   0.34237

 Mulliken charges:
               1
     1  C   -0.100747
     2  C    0.005497
     3  N   -0.199380
     4  H    0.091621
     5  H    0.099635
     6  H    0.103375
 Sum of Mulliken charges =   0.00000

 Dipole moment (field-independent basis, Debye):
    X=             -4.1030    Y=              0.0458    Z=              0.0561  Tot=              4.1037
 Quadrupole moment (field-independent basis, Debye-Ang):
   XX=            -20.8904   YY=            -17.9302   ZZ=            -17.8601
   XY=              0.1736   XZ=              0.1047   YZ=             -0.0412

 Normal termination of Gaussian 09 at Wed Aug 26 19:10:04 2020.
