 Gaussian 09, Revision D.01,
 Gaussian 09:  ES64L-G09RevD.01 24-Apr-2013

 --------------------
 #p B2PLYPD3/Def2QZVP
 --------------------

 ------------
 cyanomethane
 ------------
 Symbolic Z-matrix:
 Charge =  0 Multiplicity = 1

                         Standard orientation:
 ---------------------------------------------------------------------
 Center     Atomic      Atomic             Coordinates (Angstroms)
 Number     Number       Type             X           Y           Z
 ---------------------------------------------------------------------
      1          6           0       -1.177271    0.004732   -0.005256
      2          6           0        0.284493    0.010992    0.013905
      3          7           0        1.437952   -0.006193   -0.011821
      4          1           0       -1.626689   -0.590823   -0.840483
      5          1           0       -1.575804    1.021958   -0.051703
      6          1           0       -1.506498   -0.482125    0.923036
 ---------------------------------------------------------------------

 SCF Done:  E(RB2PLYPD3) =  -132.533820369     A.U. after   12 cycles
 E2(B2PLYPD3) =    -0.1806733424D+00 E(B2PLYPD3) =    -0.13271449371153D+03

 The electronic state is 1-A.
 Alpha  occ. eigenvalues --  -14.84255 -10.67597 -10.66352  -1.04178  -0.88780
 Alpha  occ. eigenvalues --   -0.59776  -0.53936  -0.52803  -0.44851  -0.39174
 Alpha  occ. eigenvalues --   -0.39005
 Alpha virt. eigenvalues --    0.03651   0.07399   0.08005   0.10165   0.11390
 Alpha virt. eigenvalues --    0.11616   0.15370   0.15969   0.17010   0.20044
 Alpha virt. eigenvalues --    0.20132   0.25299   0.32558   0.34120   0.34734

 Mulliken charges:
               1
     1  C   -0.085438
     2  C    0.000455
     3  N   -0.204705
     4  H    0.094653
     5  H    0.098639
     6  H    0.096395
 Sum of Mulliken charges =   0.00000

 Dipole moment (field-independent basis, Debye):
    X=             -4.1278    Y=             -0.0022    Z=              0.0309  Tot=              4.1280
 Quadrupole moment (field-independent basis, Debye-Ang):
   XX=            -20.9399   YY=            -17.7371   ZZ=            -17.8727
   XY=              0.0615   XZ=              0.1221   YZ=             -0.0205

 Normal termination of Gaussian 09 at Wed Aug 26 23:57:26 2020.
