 Gaussian 09, Revision D.01,
 Gaussian 09:  ES64L-G09RevD.01 24-Apr-2013

 --------------------
 #p B2PLYPD3/Def2QZVP
 --------------------

 ------------
 cyanomethane
 ------------
 Symbolic Z-matrix:
 Charge =  0 Multiplicity = 1

                         Standard orientation:
 ---------------------------------------------------------------------
 Center     Atomic      Atomic             Coordinates (Angstroms)
 Number     Number       Type             X           Y           Z
 ---------------------------------------------------------------------
      1          6           0       -1.187486    0.004238    0.011558
      2          6           0        0.274082   -0.025150    0.021529
      3          7           0        1.440500    0.016009   -0.015113
      4          1           0       -1.486730   -0.243030    0.935867
      5          1           0       -1.528973   -0.755669   -0.720198
      6          1           0       -1.587371    1.012108   -0.308406
 ---------------------------------------------------------------------

 SCF Done:  E(RB2PLYPD3) =  -132.526843602     A.U. after   12 cycles
 E2(B2PLYPD3) =    -0.1815783640D+00 E(B2PLYPD3) =    -0.13270842196557D+03

 The electronic state is 1-A.
 Alpha  occ. eigenvalues --  -14.84520 -10.66943 -10.66593  -1.03565  -0.89626
 Alpha  occ. eigenvalues --   -0.59480  -0.55550  -0.53128  -0.44768  -0.38873
 Alpha  occ. eigenvalues --   -0.38617
 Alpha virt. eigenvalues --    0.03612   0.07230   0.08594   0.10147   0.11032
 Alpha virt. eigenvalues --    0.11426   0.15336   0.15607   0.16606   0.20115
 Alpha virt. eigenvalues --    0.20202   0.25285   0.32437   0.33874   0.35076

 Mulliken charges:
               1
     1  C   -0.089370
     2  C   -0.000119
     3  N   -0.212973
     4  H    0.106121
     5  H    0.097297
     6  H    0.099044
 Sum of Mulliken charges =   0.00000

 Dipole moment (field-independent basis, Debye):
    X=             -4.1385    Y=             -0.0379    Z=              0.0288  Tot=              4.1388
 Quadrupole moment (field-independent basis, Debye-Ang):
   XX=            -21.1035   YY=            -17.7218   ZZ=            -17.7777
   XY=             -0.1011   XZ=              0.1056   YZ=             -0.0346

 Normal termination of Gaussian 09 at Wed Aug 26 11:57:33 2020.
