 Gaussian 09, Revision D.01,
 Gaussian 09:  ES64L-G09RevD.01 24-Apr-2013

 --------------------
 #p B2PLYPD3/Def2QZVP
 --------------------

 ------------
 cyanomethane
 ------------
 Symbolic Z-matrix:
 Charge =  0 Multiplicity = 1

                         Standard orientation:
 ---------------------------------------------------------------------
 Center     Atomic      Atomic             Coordinates (Angstroms)
 Number     Number       Type             X           Y           Z
 ---------------------------------------------------------------------
      1          6           0       -1.186337   -0.017161    0.030344
      2          6           0        0.257707    0.047309   -0.048851
      3          7           0        1.450279   -0.022402    0.008450
      4          1           0       -1.688926   -0.546241   -0.845483
      5          1           0       -1.532259    1.043596    0.015588
      6          1           0       -1.358985   -0.521430    0.881785
 ---------------------------------------------------------------------

 SCF Done:  E(RB2PLYPD3) =  -132.518083759     A.U. after   12 cycles
 E2(B2PLYPD3) =    -0.1843671646D+00 E(B2PLYPD3) =    -0.13270245092404D+03

 The electronic state is 1-A.
 Alpha  occ. eigenvalues --  -14.85266 -10.67380 -10.67126  -1.02558  -0.89878
 Alpha  occ. eigenvalues --   -0.59652  -0.56293  -0.52638  -0.44848  -0.38123
 Alpha  occ. eigenvalues --   -0.37856
 Alpha virt. eigenvalues --    0.03636   0.06493   0.07488   0.10063   0.11010
 Alpha virt. eigenvalues --    0.11227   0.15183   0.15445   0.16460   0.20187
 Alpha virt. eigenvalues --    0.20324   0.25781   0.31780   0.33548   0.35465

 Mulliken charges:
               1
     1  C   -0.093143
     2  C    0.005914
     3  N   -0.225390
     4  H    0.094833
     5  H    0.101531
     6  H    0.116254
 Sum of Mulliken charges =   0.00000

 Dipole moment (field-independent basis, Debye):
    X=             -4.1629    Y=              0.0178    Z=              0.0038  Tot=              4.1630
 Quadrupole moment (field-independent basis, Debye-Ang):
   XX=            -21.1680   YY=            -17.7666   ZZ=            -17.9218
   XY=              0.1088   XZ=              0.1976   YZ=             -0.1076

 Normal termination of Gaussian 09 at Wed Aug 26 21:58:24 2020.
