 Gaussian 09, Revision D.01,
 Gaussian 09:  ES64L-G09RevD.01 24-Apr-2013

 --------------------
 #p B2PLYPD3/Def2QZVP
 --------------------

 ------------
 cyanomethane
 ------------
 Symbolic Z-matrix:
 Charge =  0 Multiplicity = 1

                         Standard orientation:
 ---------------------------------------------------------------------
 Center     Atomic      Atomic             Coordinates (Angstroms)
 Number     Number       Type             X           Y           Z
 ---------------------------------------------------------------------
      1          6           0        1.168415    0.005354    0.004827
      2          6           0       -0.277042   -0.009183   -0.012248
      3          7           0       -1.432658    0.005047    0.005526
      4          1           0        1.555329   -0.740503   -0.674689
      5          1           0        1.552491   -0.224062    0.976512
      6          1           0        1.572551    0.952211   -0.295980
 ---------------------------------------------------------------------

 SCF Done:  E(RB2PLYPD3) =  -132.535202844     A.U. after   11 cycles
 E2(B2PLYPD3) =    -0.1804165657D+00 E(B2PLYPD3) =    -0.13271561940994D+03

 The electronic state is 1-A.
 Alpha  occ. eigenvalues --  -14.84275 -10.66512 -10.66299  -1.04132  -0.89713
 Alpha  occ. eigenvalues --   -0.60556  -0.54214  -0.53933  -0.44873  -0.39086
 Alpha  occ. eigenvalues --   -0.39013
 Alpha virt. eigenvalues --    0.03840   0.07889   0.07971   0.10153   0.11471
 Alpha virt. eigenvalues --    0.11508   0.15569   0.16301   0.16760   0.20096
 Alpha virt. eigenvalues --    0.20116   0.25590   0.32969   0.34758   0.35076

 Mulliken charges:
               1
     1  C   -0.069827
     2  C    0.000444
     3  N   -0.206931
     4  H    0.090756
     5  H    0.092885
     6  H    0.092672
 Sum of Mulliken charges =   0.00000

 Dipole moment (field-independent basis, Debye):
    X=              4.1394    Y=             -0.0120    Z=             -0.0076  Tot=              4.1394
 Quadrupole moment (field-independent basis, Debye-Ang):
   XX=            -20.8165   YY=            -17.7672   ZZ=            -17.7746
   XY=              0.0293   XZ=              0.0239   YZ=             -0.0132

 Normal termination of Gaussian 09 at Thu Aug 27 00:12:53 2020.
