 Gaussian 09, Revision D.01,
 Gaussian 09:  ES64L-G09RevD.01 24-Apr-2013

 --------------------
 #p B2PLYPD3/Def2QZVP
 --------------------

 ------------
 cyanomethane
 ------------
 Symbolic Z-matrix:
 Charge =  0 Multiplicity = 1

                         Standard orientation:
 ---------------------------------------------------------------------
 Center     Atomic      Atomic             Coordinates (Angstroms)
 Number     Number       Type             X           Y           Z
 ---------------------------------------------------------------------
      1          6           0       -1.175946    0.018073    0.003183
      2          6           0        0.268505   -0.032626   -0.009788
      3          7           0        1.436354    0.009489    0.001817
      4          1           0       -1.499633   -0.035361    1.032085
      5          1           0       -1.621074   -0.874598   -0.537141
      6          1           0       -1.489122    0.930848   -0.468034
 ---------------------------------------------------------------------

 SCF Done:  E(RB2PLYPD3) =  -132.532087928     A.U. after   12 cycles
 E2(B2PLYPD3) =    -0.1817998759D+00 E(B2PLYPD3) =    -0.13271388780353D+03

 The electronic state is 1-A.
 Alpha  occ. eigenvalues --  -14.84522 -10.67274 -10.66568  -1.03565  -0.89421
 Alpha  occ. eigenvalues --   -0.59588  -0.54933  -0.53201  -0.44797  -0.38706
 Alpha  occ. eigenvalues --   -0.38529
 Alpha virt. eigenvalues --    0.03707   0.07255   0.07835   0.10133   0.11287
 Alpha virt. eigenvalues --    0.11454   0.15364   0.15964   0.16285   0.20134
 Alpha virt. eigenvalues --    0.20182   0.25605   0.32342   0.34214   0.34869

 Mulliken charges:
               1
     1  C   -0.089583
     2  C    0.001179
     3  N   -0.213471
     4  H    0.101855
     5  H    0.094624
     6  H    0.105395
 Sum of Mulliken charges =   0.00000

 Dipole moment (field-independent basis, Debye):
    X=             -4.1333    Y=             -0.0054    Z=              0.0137  Tot=              4.1334
 Quadrupole moment (field-independent basis, Debye-Ang):
   XX=            -21.1330   YY=            -17.7343   ZZ=            -17.7964
   XY=              0.0412   XZ=              0.0049   YZ=             -0.0633

 Normal termination of Gaussian 09 at Wed Aug 26 11:47:08 2020.
