 Gaussian 09, Revision D.01,
 Gaussian 09:  ES64L-G09RevD.01 24-Apr-2013

 --------------------
 #p B2PLYPD3/Def2QZVP
 --------------------

 ------------
 cyanomethane
 ------------
 Symbolic Z-matrix:
 Charge =  0 Multiplicity = 1

                         Standard orientation:
 ---------------------------------------------------------------------
 Center     Atomic      Atomic             Coordinates (Angstroms)
 Number     Number       Type             X           Y           Z
 ---------------------------------------------------------------------
      1          6           0        1.183334   -0.016363    0.004051
      2          6           0       -0.285637    0.039244   -0.008991
      3          7           0       -1.417724   -0.015162    0.004221
      4          1           0        1.477944   -0.719862   -0.733307
      5          1           0        1.496409   -0.298625    0.971282
      6          1           0        1.563536    0.987343   -0.237879
 ---------------------------------------------------------------------

 SCF Done:  E(RB2PLYPD3) =  -132.534778855     A.U. after   11 cycles
 E2(B2PLYPD3) =    -0.1784573624D+00 E(B2PLYPD3) =    -0.13271323621724D+03

 The electronic state is 1-A.
 Alpha  occ. eigenvalues --  -14.83434 -10.66661 -10.65455  -1.04848  -0.89450
 Alpha  occ. eigenvalues --   -0.58772  -0.55153  -0.54069  -0.44540  -0.39642
 Alpha  occ. eigenvalues --   -0.39515
 Alpha virt. eigenvalues --    0.03862   0.08540   0.08799   0.10226   0.11558
 Alpha virt. eigenvalues --    0.11651   0.15348   0.15986   0.16375   0.19993
 Alpha virt. eigenvalues --    0.20026   0.25227   0.32861   0.34688   0.35218

 Mulliken charges:
               1
     1  C   -0.093089
     2  C   -0.009454
     3  N   -0.196205
     4  H    0.102167
     5  H    0.101305
     6  H    0.095276
 Sum of Mulliken charges =   0.00000

 Dipole moment (field-independent basis, Debye):
    X=              4.0806    Y=              0.0174    Z=             -0.0026  Tot=              4.0806
 Quadrupole moment (field-independent basis, Debye-Ang):
   XX=            -21.1708   YY=            -17.6008   ZZ=            -17.5894
   XY=             -0.0354   XZ=              0.0333   YZ=              0.0220

 Normal termination of Gaussian 09 at Wed Aug 26 11:01:07 2020.
