 Gaussian 09, Revision D.01,
 Gaussian 09:  ES64L-G09RevD.01 24-Apr-2013

 --------------------
 #p B2PLYPD3/Def2QZVP
 --------------------

 ------------
 cyanomethane
 ------------
 Symbolic Z-matrix:
 Charge =  0 Multiplicity = 1

                         Standard orientation:
 ---------------------------------------------------------------------
 Center     Atomic      Atomic             Coordinates (Angstroms)
 Number     Number       Type             X           Y           Z
 ---------------------------------------------------------------------
      1          6           0       -1.173299   -0.007644   -0.007197
      2          6           0        0.285756    0.014620    0.007618
      3          7           0        1.434415   -0.005012   -0.003362
      4          1           0       -1.557958   -0.470988    0.889141
      5          1           0       -1.559743   -0.537584   -0.836278
      6          1           0       -1.597947    1.001800   -0.031854
 ---------------------------------------------------------------------

 SCF Done:  E(RB2PLYPD3) =  -132.535258452     A.U. after   11 cycles
 E2(B2PLYPD3) =    -0.1798755801D+00 E(B2PLYPD3) =    -0.13271513403226D+03

 The electronic state is 1-A.
 Alpha  occ. eigenvalues --  -14.84134 -10.66716 -10.66201  -1.04403  -0.89359
 Alpha  occ. eigenvalues --   -0.60393  -0.54238  -0.53393  -0.44869  -0.39357
 Alpha  occ. eigenvalues --   -0.39231
 Alpha virt. eigenvalues --    0.03819   0.07948   0.08144   0.10190   0.11467
 Alpha virt. eigenvalues --    0.11568   0.15492   0.16471   0.16819   0.20050
 Alpha virt. eigenvalues --    0.20065   0.25354   0.32834   0.34649   0.35213

 Mulliken charges:
               1
     1  C   -0.070263
     2  C   -0.000470
     3  N   -0.202815
     4  H    0.090698
     5  H    0.093954
     6  H    0.088896
 Sum of Mulliken charges =   0.00000

 Dipole moment (field-independent basis, Debye):
    X=             -4.1335    Y=              0.0012    Z=              0.0088  Tot=              4.1335
 Quadrupole moment (field-independent basis, Debye-Ang):
   XX=            -20.7717   YY=            -17.7885   ZZ=            -17.7729
   XY=              0.0093   XZ=              0.0099   YZ=              0.0228

 Normal termination of Gaussian 09 at Wed Aug 26 12:35:10 2020.
