 Gaussian 09, Revision D.01,
 Gaussian 09:  ES64L-G09RevD.01 24-Apr-2013

 --------------------
 #p B2PLYPD3/Def2QZVP
 --------------------

 ------------
 cyanomethane
 ------------
 Symbolic Z-matrix:
 Charge =  0 Multiplicity = 1

                         Standard orientation:
 ---------------------------------------------------------------------
 Center     Atomic      Atomic             Coordinates (Angstroms)
 Number     Number       Type             X           Y           Z
 ---------------------------------------------------------------------
      1          6           0        1.182223   -0.002172   -0.002294
      2          6           0       -0.275665    0.014248    0.012925
      3          7           0       -1.438263   -0.004916   -0.003488
      4          1           0        1.573774   -0.315440    0.942978
      5          1           0        1.564227    0.982750   -0.235002
      6          1           0        1.490494   -0.705359   -0.747345
 ---------------------------------------------------------------------

 SCF Done:  E(RB2PLYPD3) =  -132.534658899     A.U. after   11 cycles
 E2(B2PLYPD3) =    -0.1809801318D+00 E(B2PLYPD3) =    -0.13271563903047D+03

 The electronic state is 1-A.
 Alpha  occ. eigenvalues --  -14.84398 -10.66701 -10.66473  -1.03770  -0.89614
 Alpha  occ. eigenvalues --   -0.59851  -0.54497  -0.54203  -0.44788  -0.38906
 Alpha  occ. eigenvalues --   -0.38867
 Alpha virt. eigenvalues --    0.03825   0.07913   0.08027   0.10189   0.11281
 Alpha virt. eigenvalues --    0.11367   0.15379   0.16138   0.16386   0.20119
 Alpha virt. eigenvalues --    0.20148   0.25330   0.32702   0.34815   0.34909

 Mulliken charges:
               1
     1  C   -0.079438
     2  C   -0.000781
     3  N   -0.210782
     4  H    0.095573
     5  H    0.096781
     6  H    0.098646
 Sum of Mulliken charges =   0.00000

 Dipole moment (field-independent basis, Debye):
    X=              4.1472    Y=             -0.0047    Z=              0.0040  Tot=              4.1472
 Quadrupole moment (field-independent basis, Debye-Ang):
   XX=            -20.9884   YY=            -17.7135   ZZ=            -17.7936
   XY=             -0.0116   XZ=              0.0348   YZ=              0.0064

 Normal termination of Gaussian 09 at Wed Aug 26 10:08:55 2020.
