 Gaussian 09, Revision D.01,
 Gaussian 09:  ES64L-G09RevD.01 24-Apr-2013

 --------------------
 #p B2PLYPD3/Def2QZVP
 --------------------

 ------------
 cyanomethane
 ------------
 Symbolic Z-matrix:
 Charge =  0 Multiplicity = 1

                         Standard orientation:
 ---------------------------------------------------------------------
 Center     Atomic      Atomic             Coordinates (Angstroms)
 Number     Number       Type             X           Y           Z
 ---------------------------------------------------------------------
      1          6           0        1.178141   -0.008980    0.003196
      2          6           0       -0.280547    0.012767   -0.027064
      3          7           0       -1.423037   -0.011062    0.018583
      4          1           0        1.601175   -0.224355    1.020995
      5          1           0        1.442000    1.034718   -0.295382
      6          1           0        1.532521   -0.755651   -0.712480
 ---------------------------------------------------------------------

 SCF Done:  E(RB2PLYPD3) =  -132.532323593     A.U. after   12 cycles
 E2(B2PLYPD3) =    -0.1799021138D+00 E(B2PLYPD3) =    -0.13271222570705D+03

 The electronic state is 1-A.
 Alpha  occ. eigenvalues --  -14.83766 -10.67782 -10.65820  -1.04487  -0.88813
 Alpha  occ. eigenvalues --   -0.58864  -0.54241  -0.53058  -0.44633  -0.39275
 Alpha  occ. eigenvalues --   -0.39071
 Alpha virt. eigenvalues --    0.03614   0.07577   0.08334   0.10163   0.11567
 Alpha virt. eigenvalues --    0.11720   0.15257   0.15522   0.16845   0.20049
 Alpha virt. eigenvalues --    0.20087   0.25368   0.32682   0.33735   0.34556

 Mulliken charges:
               1
     1  C   -0.104914
     2  C   -0.002686
     3  N   -0.201113
     4  H    0.101152
     5  H    0.102751
     6  H    0.104810
 Sum of Mulliken charges =   0.00000

 Dipole moment (field-independent basis, Debye):
    X=              4.0800    Y=              0.0209    Z=             -0.0273  Tot=              4.0802
 Quadrupole moment (field-independent basis, Debye-Ang):
   XX=            -21.2730   YY=            -17.6305   ZZ=            -17.7231
   XY=             -0.1500   XZ=              0.1920   YZ=              0.0321

 Normal termination of Gaussian 09 at Wed Aug 26 13:09:11 2020.
