 Gaussian 09, Revision D.01,
 Gaussian 09:  ES64L-G09RevD.01 24-Apr-2013

 --------------------
 #p B2PLYPD3/Def2QZVP
 --------------------

 ------------
 cyanomethane
 ------------
 Symbolic Z-matrix:
 Charge =  0 Multiplicity = 1

                         Standard orientation:
 ---------------------------------------------------------------------
 Center     Atomic      Atomic             Coordinates (Angstroms)
 Number     Number       Type             X           Y           Z
 ---------------------------------------------------------------------
      1          6           0       -1.187568    0.000022   -0.010972
      2          6           0        0.275205    0.029244    0.009579
      3          7           0        1.442269   -0.018127   -0.003026
      4          1           0       -1.502034    1.031212   -0.254214
      5          1           0       -1.561338   -0.308375    1.034209
      6          1           0       -1.558330   -0.771541   -0.750460
 ---------------------------------------------------------------------

 SCF Done:  E(RB2PLYPD3) =  -132.528653698     A.U. after   12 cycles
 E2(B2PLYPD3) =    -0.1822509733D+00 E(B2PLYPD3) =    -0.13271090467115D+03

 The electronic state is 1-A.
 Alpha  occ. eigenvalues --  -14.84520 -10.68476 -10.66630  -1.03518  -0.88415
 Alpha  occ. eigenvalues --   -0.58673  -0.54129  -0.52527  -0.44744  -0.38699
 Alpha  occ. eigenvalues --   -0.38518
 Alpha virt. eigenvalues --    0.03443   0.06947   0.07701   0.10112   0.11176
 Alpha virt. eigenvalues --    0.11505   0.15119   0.15684   0.16310   0.20090
 Alpha virt. eigenvalues --    0.20195   0.25233   0.32080   0.33393   0.34262

 Mulliken charges:
               1
     1  C   -0.106860
     2  C    0.002283
     3  N   -0.211902
     4  H    0.108702
     5  H    0.101288
     6  H    0.106489
 Sum of Mulliken charges =   0.00000

 Dipole moment (field-independent basis, Debye):
    X=             -4.1186    Y=              0.0181    Z=              0.0070  Tot=              4.1186
 Quadrupole moment (field-independent basis, Debye-Ang):
   XX=            -21.3373   YY=            -17.6903   ZZ=            -17.8726
   XY=              0.1640   XZ=             -0.0122   YZ=              0.0014

 Normal termination of Gaussian 09 at Wed Aug 26 15:45:29 2020.
