 Gaussian 09, Revision D.01,
 Gaussian 09:  ES64L-G09RevD.01 24-Apr-2013

 --------------------
 #p B2PLYPD3/Def2QZVP
 --------------------

 ------------
 cyanomethane
 ------------
 Symbolic Z-matrix:
 Charge =  0 Multiplicity = 1

                         Standard orientation:
 ---------------------------------------------------------------------
 Center     Atomic      Atomic             Coordinates (Angstroms)
 Number     Number       Type             X           Y           Z
 ---------------------------------------------------------------------
      1          6           0        1.176833   -0.022164    0.000963
      2          6           0       -0.271828    0.007656   -0.047150
      3          7           0       -1.456078   -0.005389    0.016433
      4          1           0        1.552976    1.003707   -0.091431
      5          1           0        1.727320   -0.578954   -0.612003
      6          1           0        1.482221   -0.299977    0.865527
 ---------------------------------------------------------------------

 SCF Done:  E(RB2PLYPD3) =  -132.506244641     A.U. after   12 cycles
 E2(B2PLYPD3) =    -0.1828298875D+00 E(B2PLYPD3) =    -0.13268907452882D+03

 The electronic state is 1-A.
 Alpha  occ. eigenvalues --  -14.85307 -10.67508 -10.64807  -1.03110  -0.91323
 Alpha  occ. eigenvalues --   -0.63142  -0.55405  -0.53754  -0.45171  -0.38686
 Alpha  occ. eigenvalues --   -0.38431
 Alpha virt. eigenvalues --    0.03895   0.07352   0.07736   0.10104   0.11229
 Alpha virt. eigenvalues --    0.11419   0.15493   0.16145   0.17691   0.20238
 Alpha virt. eigenvalues --    0.20403   0.25540   0.32408   0.34467   0.36388

 Mulliken charges:
               1
     1  C   -0.044867
     2  C    0.021439
     3  N   -0.220824
     4  H    0.077681
     5  H    0.078938
     6  H    0.087633
 Sum of Mulliken charges =   0.00000

 Dipole moment (field-independent basis, Debye):
    X=              4.2187    Y=             -0.0112    Z=              0.0416  Tot=              4.2190
 Quadrupole moment (field-independent basis, Debye-Ang):
   XX=            -20.3185   YY=            -17.7976   ZZ=            -18.0485
   XY=             -0.1180   XZ=              0.0998   YZ=              0.0007

 Normal termination of Gaussian 09 at Wed Aug 26 23:49:36 2020.
