 Gaussian 09, Revision D.01,
 Gaussian 09:  ES64L-G09RevD.01 24-Apr-2013

 --------------------
 #p B2PLYPD3/Def2QZVP
 --------------------

 ------------
 cyanomethane
 ------------
 Symbolic Z-matrix:
 Charge =  0 Multiplicity = 1

                         Standard orientation:
 ---------------------------------------------------------------------
 Center     Atomic      Atomic             Coordinates (Angstroms)
 Number     Number       Type             X           Y           Z
 ---------------------------------------------------------------------
      1          6           0        1.170557   -0.018850    0.004893
      2          6           0       -0.292292   -0.055437   -0.002265
      3          7           0       -1.446626    0.041190    0.002873
      4          1           0        1.743782    0.980976   -0.225231
      5          1           0        1.497215   -0.610717   -0.654083
      6          1           0        1.615797   -0.212871    0.843431
 ---------------------------------------------------------------------

 SCF Done:  E(RB2PLYPD3) =  -132.495871995     A.U. after   12 cycles
 E2(B2PLYPD3) =    -0.1807678948D+00 E(B2PLYPD3) =    -0.13267663988942D+03

 The electronic state is 1-A.
 Alpha  occ. eigenvalues --  -14.84746 -10.66832 -10.65086  -1.04271  -0.90950
 Alpha  occ. eigenvalues --   -0.62542  -0.57038  -0.51095  -0.45221  -0.39630
 Alpha  occ. eigenvalues --   -0.38987
 Alpha virt. eigenvalues --    0.03178   0.07325   0.09057   0.10024   0.11068
 Alpha virt. eigenvalues --    0.11784   0.15614   0.16649   0.17817   0.19899
 Alpha virt. eigenvalues --    0.20585   0.25385   0.32033   0.33959   0.36721

 Mulliken charges:
               1
     1  C   -0.056359
     2  C    0.016530
     3  N   -0.206248
     4  H    0.068648
     5  H    0.094492
     6  H    0.082937
 Sum of Mulliken charges =   0.00000

 Dipole moment (field-independent basis, Debye):
    X=              4.1556    Y=             -0.1158    Z=              0.0217  Tot=              4.1573
 Quadrupole moment (field-independent basis, Debye-Ang):
   XX=            -20.1456   YY=            -17.9392   ZZ=            -17.9027
   XY=              0.2793   XZ=              0.1043   YZ=              0.1271

 Normal termination of Gaussian 09 at Wed Aug 26 22:00:49 2020.
