 Gaussian 09, Revision D.01,
 Gaussian 09:  ES64L-G09RevD.01 24-Apr-2013

 --------------------
 #p B2PLYPD3/Def2QZVP
 --------------------

 ------------
 cyanomethane
 ------------
 Symbolic Z-matrix:
 Charge =  0 Multiplicity = 1

                         Standard orientation:
 ---------------------------------------------------------------------
 Center     Atomic      Atomic             Coordinates (Angstroms)
 Number     Number       Type             X           Y           Z
 ---------------------------------------------------------------------
      1          6           0        1.174683   -0.018141   -0.027546
      2          6           0       -0.280097    0.063353    0.013914
      3          7           0       -1.452188   -0.034400   -0.004666
      4          1           0        1.556847    1.025812   -0.007183
      5          1           0        1.629999   -0.565548   -0.770547
      6          1           0        1.610954   -0.490733    0.892184
 ---------------------------------------------------------------------

 SCF Done:  E(RB2PLYPD3) =  -132.524362672     A.U. after   12 cycles
 E2(B2PLYPD3) =    -0.1827986317D+00 E(B2PLYPD3) =    -0.13270716130354D+03

 The electronic state is 1-A.
 Alpha  occ. eigenvalues --  -14.85100 -10.67218 -10.67085  -1.03452  -0.89201
 Alpha  occ. eigenvalues --   -0.61606  -0.54087  -0.52062  -0.45148  -0.38822
 Alpha  occ. eigenvalues --   -0.38479
 Alpha virt. eigenvalues --    0.03603   0.06859   0.07291   0.09819   0.11238
 Alpha virt. eigenvalues --    0.11589   0.15390   0.16075   0.17615   0.20022
 Alpha virt. eigenvalues --    0.20425   0.25675   0.32442   0.33692   0.35225

 Mulliken charges:
               1
     1  C   -0.065459
     2  C    0.012098
     3  N   -0.213540
     4  H    0.088641
     5  H    0.096042
     6  H    0.082219
 Sum of Mulliken charges =   0.00000

 Dipole moment (field-independent basis, Debye):
    X=              4.1516    Y=              0.0182    Z=              0.0213  Tot=              4.1517
 Quadrupole moment (field-independent basis, Debye-Ang):
   XX=            -20.6534   YY=            -17.7905   ZZ=            -18.1141
   XY=             -0.2937   XZ=              0.0253   YZ=              0.0807

 Normal termination of Gaussian 09 at Wed Aug 26 21:37:22 2020.
