 Gaussian 09, Revision D.01,
 Gaussian 09:  ES64L-G09RevD.01 24-Apr-2013

 --------------------
 #p B2PLYPD3/Def2QZVP
 --------------------

 ------------
 cyanomethane
 ------------
 Symbolic Z-matrix:
 Charge =  0 Multiplicity = 1

                         Standard orientation:
 ---------------------------------------------------------------------
 Center     Atomic      Atomic             Coordinates (Angstroms)
 Number     Number       Type             X           Y           Z
 ---------------------------------------------------------------------
      1          6           0        1.181577   -0.014402    0.020050
      2          6           0       -0.277502    0.035915    0.007273
      3          7           0       -1.437980   -0.015856   -0.007736
      4          1           0        1.574866    0.942405   -0.415357
      5          1           0        1.547059   -0.812542   -0.655972
      6          1           0        1.519484   -0.147953    0.961544
 ---------------------------------------------------------------------

 SCF Done:  E(RB2PLYPD3) =  -132.529393267     A.U. after   11 cycles
 E2(B2PLYPD3) =    -0.1810355707D+00 E(B2PLYPD3) =    -0.13271042883778D+03

 The electronic state is 1-A.
 Alpha  occ. eigenvalues --  -14.84407 -10.66875 -10.66471  -1.03839  -0.89514
 Alpha  occ. eigenvalues --   -0.59950  -0.55527  -0.52747  -0.44817  -0.39105
 Alpha  occ. eigenvalues --   -0.38713
 Alpha virt. eigenvalues --    0.03711   0.07418   0.08359   0.10139   0.11113
 Alpha virt. eigenvalues --    0.11564   0.15402   0.15995   0.16607   0.20065
 Alpha virt. eigenvalues --    0.20160   0.25374   0.32484   0.33851   0.35413

 Mulliken charges:
               1
     1  C   -0.081966
     2  C    0.000481
     3  N   -0.209788
     4  H    0.091548
     5  H    0.095703
     6  H    0.104021
 Sum of Mulliken charges =   0.00000

 Dipole moment (field-independent basis, Debye):
    X=              4.1331    Y=              0.0179    Z=              0.0050  Tot=              4.1332
 Quadrupole moment (field-independent basis, Debye-Ang):
   XX=            -20.9976   YY=            -17.8346   ZZ=            -17.6909
   XY=             -0.0678   XZ=             -0.0916   YZ=             -0.0155

 Normal termination of Gaussian 09 at Wed Aug 26 15:31:54 2020.
