 Gaussian 09, Revision D.01,
 Gaussian 09:  ES64L-G09RevD.01 24-Apr-2013

 --------------------
 #p B2PLYPD3/Def2QZVP
 --------------------

 ------------
 cyanomethane
 ------------
 Symbolic Z-matrix:
 Charge =  0 Multiplicity = 1

                         Standard orientation:
 ---------------------------------------------------------------------
 Center     Atomic      Atomic             Coordinates (Angstroms)
 Number     Number       Type             X           Y           Z
 ---------------------------------------------------------------------
      1          6           0       -1.180186    0.028768   -0.000661
      2          6           0        0.272812   -0.013776   -0.024578
      3          7           0        1.416903    0.001748    0.015549
      4          1           0       -1.456207    1.040509    0.011132
      5          1           0       -1.539402   -0.568974    0.918023
      6          1           0       -1.478467   -0.573724   -0.886559
 ---------------------------------------------------------------------

 SCF Done:  E(RB2PLYPD3) =  -132.529041091     A.U. after   12 cycles
 E2(B2PLYPD3) =    -0.1799396660D+00 E(B2PLYPD3) =    -0.13270898075726D+03

 The electronic state is 1-A.
 Alpha  occ. eigenvalues --  -14.83647 -10.67576 -10.65669  -1.04368  -0.89265
 Alpha  occ. eigenvalues --   -0.58275  -0.55964  -0.52612  -0.44499  -0.39291
 Alpha  occ. eigenvalues --   -0.38797
 Alpha virt. eigenvalues --    0.03615   0.07643   0.08567   0.10134   0.11395
 Alpha virt. eigenvalues --    0.11888   0.15211   0.15415   0.16329   0.20016
 Alpha virt. eigenvalues --    0.20159   0.25375   0.32479   0.33081   0.35326

 Mulliken charges:
               1
     1  C   -0.110154
     2  C   -0.004202
     3  N   -0.203829
     4  H    0.115008
     5  H    0.099400
     6  H    0.103777
 Sum of Mulliken charges =   0.00000

 Dipole moment (field-independent basis, Debye):
    X=             -4.0661    Y=             -0.0248    Z=             -0.0272  Tot=              4.0663
 Quadrupole moment (field-independent basis, Debye-Ang):
   XX=            -21.4945   YY=            -17.4192   ZZ=            -17.7824
   XY=              0.0936   XZ=             -0.1287   YZ=              0.0346

 Normal termination of Gaussian 09 at Wed Aug 26 22:37:55 2020.
