 Gaussian 09, Revision D.01,
 Gaussian 09:  ES64L-G09RevD.01 24-Apr-2013

 --------------------
 #p B2PLYPD3/Def2QZVP
 --------------------

 ------------
 cyanomethane
 ------------
 Symbolic Z-matrix:
 Charge =  0 Multiplicity = 1

                         Standard orientation:
 ---------------------------------------------------------------------
 Center     Atomic      Atomic             Coordinates (Angstroms)
 Number     Number       Type             X           Y           Z
 ---------------------------------------------------------------------
      1          6           0        1.196977    0.011938   -0.004996
      2          6           0       -0.269196    0.002852   -0.044027
      3          7           0       -1.443591   -0.006187    0.020040
      4          1           0        1.462119    1.026944    0.125743
      5          1           0        1.572160   -0.472490   -0.865706
      6          1           0        1.504173   -0.599887    0.893817
 ---------------------------------------------------------------------

 SCF Done:  E(RB2PLYPD3) =  -132.528857599     A.U. after   12 cycles
 E2(B2PLYPD3) =    -0.1823340148D+00 E(B2PLYPD3) =    -0.13271119161374D+03

 The electronic state is 1-A.
 Alpha  occ. eigenvalues --  -14.84650 -10.67127 -10.66769  -1.03159  -0.89529
 Alpha  occ. eigenvalues --   -0.58975  -0.56012  -0.53245  -0.44674  -0.38655
 Alpha  occ. eigenvalues --   -0.38322
 Alpha virt. eigenvalues --    0.03633   0.07496   0.08233   0.10163   0.10841
 Alpha virt. eigenvalues --    0.11346   0.15137   0.15767   0.15936   0.20135
 Alpha virt. eigenvalues --    0.20248   0.25161   0.32381   0.33542   0.35478

 Mulliken charges:
               1
     1  C   -0.094322
     2  C   -0.000239
     3  N   -0.217746
     4  H    0.109442
     5  H    0.104312
     6  H    0.098553
 Sum of Mulliken charges =   0.00000

 Dipole moment (field-independent basis, Debye):
    X=              4.1478    Y=             -0.0037    Z=             -0.0152  Tot=              4.1479
 Quadrupole moment (field-independent basis, Debye-Ang):
   XX=            -21.2830   YY=            -17.6459   ZZ=            -17.8338
   XY=             -0.1336   XZ=              0.0654   YZ=              0.0752

 Normal termination of Gaussian 09 at Wed Aug 26 12:31:44 2020.
