 Gaussian 09, Revision D.01,
 Gaussian 09:  ES64L-G09RevD.01 24-Apr-2013

 --------------------
 #p B2PLYPD3/Def2QZVP
 --------------------

 ------------
 cyanomethane
 ------------
 Symbolic Z-matrix:
 Charge =  0 Multiplicity = 1

                         Standard orientation:
 ---------------------------------------------------------------------
 Center     Atomic      Atomic             Coordinates (Angstroms)
 Number     Number       Type             X           Y           Z
 ---------------------------------------------------------------------
      1          6           0        1.185190    0.001127   -0.004079
      2          6           0       -0.273299    0.012582    0.008658
      3          7           0       -1.437835   -0.007895   -0.002992
      4          1           0        1.549388   -0.195859    0.982181
      5          1           0        1.510167    0.942445   -0.334070
      6          1           0        1.533945   -0.773581   -0.654644
 ---------------------------------------------------------------------

 SCF Done:  E(RB2PLYPD3) =  -132.533593709     A.U. after   11 cycles
 E2(B2PLYPD3) =    -0.1810048439D+00 E(B2PLYPD3) =    -0.13271459855257D+03

 The electronic state is 1-A.
 Alpha  occ. eigenvalues --  -14.84408 -10.66485 -10.66374  -1.03672  -0.89911
 Alpha  occ. eigenvalues --   -0.59741  -0.55177  -0.54321  -0.44751  -0.38880
 Alpha  occ. eigenvalues --   -0.38807
 Alpha virt. eigenvalues --    0.03868   0.07944   0.08284   0.10181   0.11184
 Alpha virt. eigenvalues --    0.11334   0.15393   0.16040   0.16288   0.20132
 Alpha virt. eigenvalues --    0.20173   0.25299   0.32764   0.34820   0.35165

 Mulliken charges:
               1
     1  C   -0.078369
     2  C   -0.001761
     3  N   -0.212283
     4  H    0.095831
     5  H    0.099336
     6  H    0.097246
 Sum of Mulliken charges =   0.00000

 Dipole moment (field-independent basis, Debye):
    X=              4.1498    Y=              0.0083    Z=              0.0056  Tot=              4.1498
 Quadrupole moment (field-independent basis, Debye-Ang):
   XX=            -21.0239   YY=            -17.6923   ZZ=            -17.7606
   XY=             -0.0698   XZ=              0.0089   YZ=             -0.0136

 Normal termination of Gaussian 09 at Wed Aug 26 10:59:17 2020.
