 Gaussian 09, Revision D.01,
 Gaussian 09:  ES64L-G09RevD.01 24-Apr-2013

 --------------------
 #p B2PLYPD3/Def2QZVP
 --------------------

 ------------
 cyanomethane
 ------------
 Symbolic Z-matrix:
 Charge =  0 Multiplicity = 1

                         Standard orientation:
 ---------------------------------------------------------------------
 Center     Atomic      Atomic             Coordinates (Angstroms)
 Number     Number       Type             X           Y           Z
 ---------------------------------------------------------------------
      1          6           0        1.158898   -0.002822   -0.005082
      2          6           0       -0.267415   -0.024192   -0.015192
      3          7           0       -1.432770    0.019791    0.010108
      4          1           0        1.492352   -0.577044   -0.836426
      5          1           0        1.539559   -0.461644    0.937662
      6          1           0        1.648582    1.062234   -0.050347
 ---------------------------------------------------------------------

 SCF Done:  E(RB2PLYPD3) =  -132.527453008     A.U. after   12 cycles
 E2(B2PLYPD3) =    -0.1820156463D+00 E(B2PLYPD3) =    -0.13270946865471D+03

 The electronic state is 1-A.
 Alpha  occ. eigenvalues --  -14.84561 -10.67633 -10.66536  -1.03768  -0.89325
 Alpha  occ. eigenvalues --   -0.60107  -0.54537  -0.52259  -0.44930  -0.38691
 Alpha  occ. eigenvalues --   -0.38461
 Alpha virt. eigenvalues --    0.03448   0.06507   0.07840   0.10054   0.11369
 Alpha virt. eigenvalues --    0.11749   0.15535   0.15815   0.16935   0.20096
 Alpha virt. eigenvalues --    0.20254   0.25911   0.32439   0.33650   0.34577

 Mulliken charges:
               1
     1  C   -0.087520
     2  C    0.003428
     3  N   -0.210886
     4  H    0.102954
     5  H    0.097500
     6  H    0.094523
 Sum of Mulliken charges =   0.00000

 Dipole moment (field-independent basis, Debye):
    X=              4.1236    Y=             -0.0544    Z=             -0.0090  Tot=              4.1240
 Quadrupole moment (field-independent basis, Debye-Ang):
   XX=            -21.0019   YY=            -17.8186   ZZ=            -17.8218
   XY=              0.1650   XZ=              0.0969   YZ=              0.0512

 Normal termination of Gaussian 09 at Wed Aug 26 15:36:03 2020.
