 Gaussian 09, Revision D.01,
 Gaussian 09:  ES64L-G09RevD.01 24-Apr-2013

 --------------------
 #p B2PLYPD3/Def2QZVP
 --------------------

 ------------
 cyanomethane
 ------------
 Symbolic Z-matrix:
 Charge =  0 Multiplicity = 1

                         Standard orientation:
 ---------------------------------------------------------------------
 Center     Atomic      Atomic             Coordinates (Angstroms)
 Number     Number       Type             X           Y           Z
 ---------------------------------------------------------------------
      1          6           0        1.196693   -0.018920    0.004419
      2          6           0       -0.264208   -0.028801   -0.047570
      3          7           0       -1.447434    0.014266    0.016804
      4          1           0        1.546394    0.886321   -0.522027
      5          1           0        1.584341   -0.851841   -0.351136
      6          1           0        1.406396    0.151980    1.014437
 ---------------------------------------------------------------------

 SCF Done:  E(RB2PLYPD3) =  -132.520684041     A.U. after   12 cycles
 E2(B2PLYPD3) =    -0.1828078857D+00 E(B2PLYPD3) =    -0.13270349192651D+03

 The electronic state is 1-A.
 Alpha  occ. eigenvalues --  -14.84940 -10.67089 -10.65978  -1.02859  -0.90500
 Alpha  occ. eigenvalues --   -0.60150  -0.56829  -0.53758  -0.44759  -0.38553
 Alpha  occ. eigenvalues --   -0.38121
 Alpha virt. eigenvalues --    0.03776   0.07535   0.08315   0.10188   0.10674
 Alpha virt. eigenvalues --    0.11373   0.15240   0.15601   0.16373   0.20134
 Alpha virt. eigenvalues --    0.20339   0.25292   0.32340   0.34195   0.35767

 Mulliken charges:
               1
     1  C   -0.079183
     2  C    0.002518
     3  N   -0.222429
     4  H    0.094041
     5  H    0.103405
     6  H    0.101647
 Sum of Mulliken charges =   0.00000

 Dipole moment (field-independent basis, Debye):
    X=              4.1798    Y=              0.0056    Z=              0.0162  Tot=              4.1798
 Quadrupole moment (field-independent basis, Debye-Ang):
   XX=            -21.0685   YY=            -17.6643   ZZ=            -17.8574
   XY=              0.0721   XZ=              0.0240   YZ=              0.0810

 Normal termination of Gaussian 09 at Wed Aug 26 18:33:28 2020.
