 Gaussian 09, Revision D.01,
 Gaussian 09:  ES64L-G09RevD.01 24-Apr-2013

 --------------------
 #p B2PLYPD3/Def2QZVP
 --------------------

 ------------
 cyanomethane
 ------------
 Symbolic Z-matrix:
 Charge =  0 Multiplicity = 1

                         Standard orientation:
 ---------------------------------------------------------------------
 Center     Atomic      Atomic             Coordinates (Angstroms)
 Number     Number       Type             X           Y           Z
 ---------------------------------------------------------------------
      1          6           0       -1.189611    0.017473   -0.020134
      2          6           0        0.283713    0.017608   -0.012477
      3          7           0        1.438524   -0.005043    0.006153
      4          1           0       -1.488845   -0.286141    0.933092
      5          1           0       -1.510796   -0.800461   -0.573641
      6          1           0       -1.634637    0.911414   -0.206861
 ---------------------------------------------------------------------

 SCF Done:  E(RB2PLYPD3) =  -132.525613938     A.U. after   12 cycles
 E2(B2PLYPD3) =    -0.1800473968D+00 E(B2PLYPD3) =    -0.13270566133435D+03

 The electronic state is 1-A.
 Alpha  occ. eigenvalues --  -14.84199 -10.66359 -10.65554  -1.04064  -0.90452
 Alpha  occ. eigenvalues --   -0.60446  -0.56769  -0.53198  -0.44767  -0.39473
 Alpha  occ. eigenvalues --   -0.38897
 Alpha virt. eigenvalues --    0.03946   0.08531   0.08639   0.10232   0.10877
 Alpha virt. eigenvalues --    0.11749   0.15355   0.15663   0.17633   0.20021
 Alpha virt. eigenvalues --    0.20244   0.24990   0.32819   0.34493   0.36411

 Mulliken charges:
               1
     1  C   -0.061827
     2  C    0.001340
     3  N   -0.208227
     4  H    0.082206
     5  H    0.090011
     6  H    0.096497
 Sum of Mulliken charges =   0.00000

 Dipole moment (field-independent basis, Debye):
    X=             -4.1756    Y=             -0.0470    Z=              0.0627  Tot=              4.1763
 Quadrupole moment (field-independent basis, Debye-Ang):
   XX=            -20.7423   YY=            -17.4423   ZZ=            -18.0272
   XY=              0.0532   XZ=             -0.1663   YZ=             -0.0061

 Normal termination of Gaussian 09 at Wed Aug 26 23:40:46 2020.
