 Gaussian 09, Revision D.01,
 Gaussian 09:  ES64L-G09RevD.01 24-Apr-2013

 --------------------
 #p B2PLYPD3/Def2QZVP
 --------------------

 ------------
 cyanomethane
 ------------
 Symbolic Z-matrix:
 Charge =  0 Multiplicity = 1

                         Standard orientation:
 ---------------------------------------------------------------------
 Center     Atomic      Atomic             Coordinates (Angstroms)
 Number     Number       Type             X           Y           Z
 ---------------------------------------------------------------------
      1          6           0        1.158906   -0.012839   -0.002560
      2          6           0       -0.270294    0.035820    0.000539
      3          7           0       -1.430890   -0.018088    0.001399
      4          1           0        1.551093    1.038130   -0.002369
      5          1           0        1.550041   -0.527460   -0.865949
      6          1           0        1.583427   -0.521943    0.870652
 ---------------------------------------------------------------------

 SCF Done:  E(RB2PLYPD3) =  -132.532880845     A.U. after   11 cycles
 E2(B2PLYPD3) =    -0.1813185765D+00 E(B2PLYPD3) =    -0.13271419942140D+03

 The electronic state is 1-A.
 Alpha  occ. eigenvalues --  -14.84448 -10.67114 -10.66425  -1.03947  -0.89469
 Alpha  occ. eigenvalues --   -0.60635  -0.53838  -0.53342  -0.44931  -0.38816
 Alpha  occ. eigenvalues --   -0.38712
 Alpha virt. eigenvalues --    0.03710   0.07305   0.07508   0.10040   0.11525
 Alpha virt. eigenvalues --    0.11615   0.15599   0.16125   0.16853   0.20074
 Alpha virt. eigenvalues --    0.20195   0.25926   0.32764   0.34252   0.34782

 Mulliken charges:
               1
     1  C   -0.078124
     2  C    0.003377
     3  N   -0.209211
     4  H    0.092765
     5  H    0.096770
     6  H    0.094422
 Sum of Mulliken charges =   0.00000

 Dipole moment (field-independent basis, Debye):
    X=              4.1257    Y=              0.0094    Z=             -0.0039  Tot=              4.1258
 Quadrupole moment (field-independent basis, Debye-Ang):
   XX=            -20.9049   YY=            -17.7407   ZZ=            -17.8646
   XY=             -0.1469   XZ=              0.0286   YZ=              0.0170

 Normal termination of Gaussian 09 at Wed Aug 26 11:58:18 2020.
