 Gaussian 09, Revision D.01,
 Gaussian 09:  ES64L-G09RevD.01 24-Apr-2013

 --------------------
 #p B2PLYPD3/Def2QZVP
 --------------------

 ------------
 cyanomethane
 ------------
 Symbolic Z-matrix:
 Charge =  0 Multiplicity = 1

                         Standard orientation:
 ---------------------------------------------------------------------
 Center     Atomic      Atomic             Coordinates (Angstroms)
 Number     Number       Type             X           Y           Z
 ---------------------------------------------------------------------
      1          6           0        1.188280   -0.022242   -0.001205
      2          6           0       -0.282547    0.022469   -0.008120
      3          7           0       -1.440977   -0.008507    0.005708
      4          1           0        1.568799   -0.003631    1.011009
      5          1           0        1.553717    0.923914   -0.477522
      6          1           0        1.529922   -0.862096   -0.517499
 ---------------------------------------------------------------------

 SCF Done:  E(RB2PLYPD3) =  -132.532902103     A.U. after   11 cycles
 E2(B2PLYPD3) =    -0.1807902572D+00 E(B2PLYPD3) =    -0.13271369235975D+03

 The electronic state is 1-A.
 Alpha  occ. eigenvalues --  -14.84330 -10.67069 -10.66439  -1.03910  -0.89204
 Alpha  occ. eigenvalues --   -0.59617  -0.55135  -0.52972  -0.44779  -0.39177
 Alpha  occ. eigenvalues --   -0.38862
 Alpha virt. eigenvalues --    0.03763   0.07775   0.08169   0.10164   0.11171
 Alpha virt. eigenvalues --    0.11489   0.15296   0.15921   0.16697   0.20055
 Alpha virt. eigenvalues --    0.20144   0.25130   0.32441   0.34005   0.35444

 Mulliken charges:
               1
     1  C   -0.083107
     2  C   -0.000854
     3  N   -0.208299
     4  H    0.096137
     5  H    0.092731
     6  H    0.103392
 Sum of Mulliken charges =   0.00000

 Dipole moment (field-independent basis, Debye):
    X=              4.1396    Y=              0.0172    Z=              0.0041  Tot=              4.1396
 Quadrupole moment (field-independent basis, Debye-Ang):
   XX=            -21.0088   YY=            -17.7030   ZZ=            -17.8266
   XY=             -0.0099   XZ=              0.0849   YZ=              0.0763

 Normal termination of Gaussian 09 at Wed Aug 26 15:37:45 2020.
