 Gaussian 09, Revision D.01,
 Gaussian 09:  ES64L-G09RevD.01 24-Apr-2013

 --------------------
 #p B2PLYPD3/Def2QZVP
 --------------------

 ------------
 cyanomethane
 ------------
 Symbolic Z-matrix:
 Charge =  0 Multiplicity = 1

                         Standard orientation:
 ---------------------------------------------------------------------
 Center     Atomic      Atomic             Coordinates (Angstroms)
 Number     Number       Type             X           Y           Z
 ---------------------------------------------------------------------
      1          6           0       -1.168496   -0.029836    0.016623
      2          6           0        0.264768    0.053201   -0.015557
      3          7           0        1.422823   -0.031025    0.006275
      4          1           0       -1.427042    1.030322   -0.151180
      5          1           0       -1.543307   -0.349328    0.887352
      6          1           0       -1.567045   -0.604004   -0.786493
 ---------------------------------------------------------------------

 SCF Done:  E(RB2PLYPD3) =  -132.525017199     A.U. after   12 cycles
 E2(B2PLYPD3) =    -0.1809063599D+00 E(B2PLYPD3) =    -0.13270592355917D+03

 The electronic state is 1-A.
 Alpha  occ. eigenvalues --  -14.84276 -10.66279 -10.65901  -1.03910  -0.90515
 Alpha  occ. eigenvalues --   -0.60972  -0.55581  -0.53783  -0.44784  -0.39018
 Alpha  occ. eigenvalues --   -0.38493
 Alpha virt. eigenvalues --    0.03867   0.07891   0.08227   0.09900   0.11328
 Alpha virt. eigenvalues --    0.11608   0.15068   0.15779   0.17398   0.20123
 Alpha virt. eigenvalues --    0.20247   0.26010   0.32830   0.34067   0.35883

 Mulliken charges:
               1
     1  C   -0.080430
     2  C    0.005415
     3  N   -0.212337
     4  H    0.092148
     5  H    0.099622
     6  H    0.095582
 Sum of Mulliken charges =   0.00000

 Dipole moment (field-independent basis, Debye):
    X=             -4.1091    Y=              0.0534    Z=             -0.0098  Tot=              4.1095
 Quadrupole moment (field-independent basis, Debye-Ang):
   XX=            -21.0360   YY=            -17.6717   ZZ=            -17.7015
   XY=              0.2567   XZ=             -0.0274   YZ=             -0.0176

 Normal termination of Gaussian 09 at Wed Aug 26 22:54:05 2020.
