 Gaussian 09, Revision D.01,
 Gaussian 09:  ES64L-G09RevD.01 24-Apr-2013

 --------------------
 #p B2PLYPD3/Def2QZVP
 --------------------

 ------------
 cyanomethane
 ------------
 Symbolic Z-matrix:
 Charge =  0 Multiplicity = 1

                         Standard orientation:
 ---------------------------------------------------------------------
 Center     Atomic      Atomic             Coordinates (Angstroms)
 Number     Number       Type             X           Y           Z
 ---------------------------------------------------------------------
      1          6           0       -1.176756   -0.020038    0.009019
      2          6           0        0.279020    0.040203   -0.005755
      3          7           0        1.443513   -0.020454   -0.002108
      4          1           0       -1.554155    1.008816   -0.051253
      5          1           0       -1.528942   -0.447222    0.856077
      6          1           0       -1.635076   -0.539406   -0.809654
 ---------------------------------------------------------------------

 SCF Done:  E(RB2PLYPD3) =  -132.528772421     A.U. after   12 cycles
 E2(B2PLYPD3) =    -0.1812854485D+00 E(B2PLYPD3) =    -0.13271005786910D+03

 The electronic state is 1-A.
 Alpha  occ. eigenvalues --  -14.84664 -10.66748 -10.66222  -1.03765  -0.89886
 Alpha  occ. eigenvalues --   -0.61066  -0.54983  -0.53230  -0.44978  -0.39042
 Alpha  occ. eigenvalues --   -0.38791
 Alpha virt. eigenvalues --    0.03831   0.07518   0.08058   0.10070   0.11267
 Alpha virt. eigenvalues --    0.11440   0.15516   0.16069   0.17210   0.20075
 Alpha virt. eigenvalues --    0.20231   0.25502   0.32669   0.34439   0.35669

 Mulliken charges:
               1
     1  C   -0.062551
     2  C    0.005299
     3  N   -0.211321
     4  H    0.086412
     5  H    0.094584
     6  H    0.087577
 Sum of Mulliken charges =   0.00000

 Dipole moment (field-independent basis, Debye):
    X=             -4.1573    Y=              0.0217    Z=              0.0102  Tot=              4.1573
 Quadrupole moment (field-independent basis, Debye-Ang):
   XX=            -20.6940   YY=            -17.7978   ZZ=            -17.8671
   XY=              0.1452   XZ=              0.0685   YZ=             -0.0455

 Normal termination of Gaussian 09 at Wed Aug 26 14:18:11 2020.
