 Gaussian 09, Revision D.01,
 Gaussian 09:  ES64L-G09RevD.01 24-Apr-2013

 --------------------
 #p B2PLYPD3/Def2QZVP
 --------------------

 ------------
 cyanomethane
 ------------
 Symbolic Z-matrix:
 Charge =  0 Multiplicity = 1

                         Standard orientation:
 ---------------------------------------------------------------------
 Center     Atomic      Atomic             Coordinates (Angstroms)
 Number     Number       Type             X           Y           Z
 ---------------------------------------------------------------------
      1          6           0       -1.178845   -0.010584   -0.009216
      2          6           0        0.284994    0.014601    0.002855
      3          7           0        1.434887   -0.002104    0.002835
      4          1           0       -1.596480   -0.157031    1.013641
      5          1           0       -1.484237   -0.801565   -0.630095
      6          1           0       -1.600380    0.949218   -0.365229
 ---------------------------------------------------------------------

 SCF Done:  E(RB2PLYPD3) =  -132.534084809     A.U. after   12 cycles
 E2(B2PLYPD3) =    -0.1801225108D+00 E(B2PLYPD3) =    -0.13271420732010D+03

 The electronic state is 1-A.
 Alpha  occ. eigenvalues --  -14.84106 -10.67206 -10.66187  -1.04306  -0.89068
 Alpha  occ. eigenvalues --   -0.59687  -0.54741  -0.52783  -0.44795  -0.39315
 Alpha  occ. eigenvalues --   -0.39110
 Alpha virt. eigenvalues --    0.03739   0.07628   0.08290   0.10219   0.11377
 Alpha virt. eigenvalues --    0.11618   0.15349   0.16369   0.16539   0.20019
 Alpha virt. eigenvalues --    0.20101   0.25245   0.32566   0.34188   0.35185

 Mulliken charges:
               1
     1  C   -0.083107
     2  C   -0.001903
     3  N   -0.203417
     4  H    0.092648
     5  H    0.102091
     6  H    0.093688
 Sum of Mulliken charges =   0.00000

 Dipole moment (field-independent basis, Debye):
    X=             -4.1254    Y=             -0.0009    Z=             -0.0046  Tot=              4.1254
 Quadrupole moment (field-independent basis, Debye-Ang):
   XX=            -20.9420   YY=            -17.7336   ZZ=            -17.7947
   XY=             -0.0607   XZ=             -0.0783   YZ=              0.0633

 Normal termination of Gaussian 09 at Wed Aug 26 09:45:18 2020.
