 Gaussian 09, Revision D.01,
 Gaussian 09:  ES64L-G09RevD.01 24-Apr-2013

 --------------------
 #p B2PLYPD3/Def2QZVP
 --------------------

 ------------
 cyanomethane
 ------------
 Symbolic Z-matrix:
 Charge =  0 Multiplicity = 1

                         Standard orientation:
 ---------------------------------------------------------------------
 Center     Atomic      Atomic             Coordinates (Angstroms)
 Number     Number       Type             X           Y           Z
 ---------------------------------------------------------------------
      1          6           0        1.173428   -0.008964    0.002124
      2          6           0       -0.275849    0.008908   -0.011996
      3          7           0       -1.440506   -0.001496    0.005113
      4          1           0        1.598233    0.994583   -0.253402
      5          1           0        1.554291   -0.723632   -0.700906
      6          1           0        1.545543   -0.260148    0.977751
 ---------------------------------------------------------------------

 SCF Done:  E(RB2PLYPD3) =  -132.533723298     A.U. after   11 cycles
 E2(B2PLYPD3) =    -0.1813857014D+00 E(B2PLYPD3) =    -0.13271510899912D+03

 The electronic state is 1-A.
 Alpha  occ. eigenvalues --  -14.84552 -10.67034 -10.66614  -1.03772  -0.89372
 Alpha  occ. eigenvalues --   -0.60336  -0.54298  -0.53273  -0.44910  -0.38888
 Alpha  occ. eigenvalues --   -0.38765
 Alpha virt. eigenvalues --    0.03747   0.07410   0.07789   0.10142   0.11335
 Alpha virt. eigenvalues --    0.11475   0.15472   0.16433   0.16457   0.20116
 Alpha virt. eigenvalues --    0.20153   0.25500   0.32588   0.34402   0.34969

 Mulliken charges:
               1
     1  C   -0.075518
     2  C    0.001872
     3  N   -0.210487
     4  H    0.091676
     5  H    0.096678
     6  H    0.095779
 Sum of Mulliken charges =   0.00000

 Dipole moment (field-independent basis, Debye):
    X=              4.1484    Y=             -0.0085    Z=              0.0035  Tot=              4.1484
 Quadrupole moment (field-independent basis, Debye-Ang):
   XX=            -20.8817   YY=            -17.8026   ZZ=            -17.8328
   XY=              0.0092   XZ=              0.0356   YZ=              0.0264

 Normal termination of Gaussian 09 at Thu Aug 27 00:09:25 2020.
