 Gaussian 09, Revision D.01,
 Gaussian 09:  ES64L-G09RevD.01 24-Apr-2013

 --------------------
 #p B2PLYPD3/Def2QZVP
 --------------------

 ------------
 cyanomethane
 ------------
 Symbolic Z-matrix:
 Charge =  0 Multiplicity = 1

                         Standard orientation:
 ---------------------------------------------------------------------
 Center     Atomic      Atomic             Coordinates (Angstroms)
 Number     Number       Type             X           Y           Z
 ---------------------------------------------------------------------
      1          6           0       -1.185849   -0.000210   -0.000101
      2          6           0        0.281061    0.009653    0.001050
      3          7           0        1.437423   -0.000771   -0.002559
      4          1           0       -1.499543   -0.343830    0.950322
      5          1           0       -1.527345   -0.704430   -0.741703
      6          1           0       -1.606344    0.996994   -0.196394
 ---------------------------------------------------------------------

 SCF Done:  E(RB2PLYPD3) =  -132.534705821     A.U. after   12 cycles
 E2(B2PLYPD3) =    -0.1804866317D+00 E(B2PLYPD3) =    -0.13271519245234D+03

 The electronic state is 1-A.
 Alpha  occ. eigenvalues --  -14.84219 -10.66916 -10.66316  -1.04000  -0.89363
 Alpha  occ. eigenvalues --   -0.59509  -0.54359  -0.54057  -0.44746  -0.39094
 Alpha  occ. eigenvalues --   -0.39033
 Alpha virt. eigenvalues --    0.03797   0.07868   0.08319   0.10212   0.11316
 Alpha virt. eigenvalues --    0.11412   0.15332   0.15925   0.16631   0.20082
 Alpha virt. eigenvalues --    0.20125   0.25151   0.32594   0.34746   0.34897

 Mulliken charges:
               1
     1  C   -0.083802
     2  C   -0.002330
     3  N   -0.207468
     4  H    0.098523
     5  H    0.097658
     6  H    0.097420
 Sum of Mulliken charges =   0.00000

 Dipole moment (field-independent basis, Debye):
    X=             -4.1387    Y=             -0.0205    Z=              0.0166  Tot=              4.1388
 Quadrupole moment (field-independent basis, Debye-Ang):
   XX=            -21.0142   YY=            -17.6774   ZZ=            -17.8023
   XY=             -0.0192   XZ=              0.0190   YZ=             -0.0052

 Normal termination of Gaussian 09 at Wed Aug 26 10:00:23 2020.
