 Gaussian 09, Revision D.01,
 Gaussian 09:  ES64L-G09RevD.01 24-Apr-2013

 --------------------
 #p B2PLYPD3/Def2QZVP
 --------------------

 ------------
 cyanomethane
 ------------
 Symbolic Z-matrix:
 Charge =  0 Multiplicity = 1

                         Standard orientation:
 ---------------------------------------------------------------------
 Center     Atomic      Atomic             Coordinates (Angstroms)
 Number     Number       Type             X           Y           Z
 ---------------------------------------------------------------------
      1          6           0        1.171506    0.007180   -0.003310
      2          6           0       -0.269924   -0.012290    0.028015
      3          7           0       -1.429031    0.012018   -0.012834
      4          1           0        1.520092   -0.368239    0.928815
      5          1           0        1.612463    0.989265   -0.192666
      6          1           0        1.461172   -0.674491   -0.794543
 ---------------------------------------------------------------------

 SCF Done:  E(RB2PLYPD3) =  -132.533533257     A.U. after   12 cycles
 E2(B2PLYPD3) =    -0.1808711402D+00 E(B2PLYPD3) =    -0.13271440439751D+03

 The electronic state is 1-A.
 Alpha  occ. eigenvalues --  -14.84263 -10.66705 -10.66285  -1.03911  -0.89803
 Alpha  occ. eigenvalues --   -0.59918  -0.54650  -0.54012  -0.44770  -0.38881
 Alpha  occ. eigenvalues --   -0.38775
 Alpha virt. eigenvalues --    0.03775   0.07564   0.08257   0.10122   0.11384
 Alpha virt. eigenvalues --    0.11535   0.15477   0.15643   0.16860   0.20123
 Alpha virt. eigenvalues --    0.20180   0.25674   0.32929   0.34462   0.34906

 Mulliken charges:
               1
     1  C   -0.084624
     2  C    0.000083
     3  N   -0.210209
     4  H    0.097918
     5  H    0.097924
     6  H    0.098908
 Sum of Mulliken charges =   0.00000

 Dipole moment (field-independent basis, Debye):
    X=              4.1282    Y=             -0.0342    Z=              0.0170  Tot=              4.1284
 Quadrupole moment (field-independent basis, Debye-Ang):
   XX=            -21.0435   YY=            -17.7133   ZZ=            -17.7368
   XY=              0.1347   XZ=             -0.0431   YZ=             -0.0035

 Normal termination of Gaussian 09 at Wed Aug 26 10:26:14 2020.
