 Gaussian 09, Revision D.01,
 Gaussian 09:  ES64L-G09RevD.01 24-Apr-2013

 --------------------
 #p B2PLYPD3/Def2QZVP
 --------------------

 ------------
 cyanomethane
 ------------
 Symbolic Z-matrix:
 Charge =  0 Multiplicity = 1

                         Standard orientation:
 ---------------------------------------------------------------------
 Center     Atomic      Atomic             Coordinates (Angstroms)
 Number     Number       Type             X           Y           Z
 ---------------------------------------------------------------------
      1          6           0       -1.176336    0.003865   -0.019202
      2          6           0        0.265640    0.014059    0.064781
      3          7           0        1.431856   -0.011580   -0.040901
      4          1           0       -1.406607   -0.253895    0.967128
      5          1           0       -1.645792   -0.763251   -0.674262
      6          1           0       -1.506414    0.990664   -0.280031
 ---------------------------------------------------------------------

 SCF Done:  E(RB2PLYPD3) =  -132.525244690     A.U. after   13 cycles
 E2(B2PLYPD3) =    -0.1821403560D+00 E(B2PLYPD3) =    -0.13270738504571D+03

 The electronic state is 1-A.
 Alpha  occ. eigenvalues --  -14.84598 -10.66660 -10.66596  -1.03515  -0.90037
 Alpha  occ. eigenvalues --   -0.59754  -0.55564  -0.53324  -0.44810  -0.38679
 Alpha  occ. eigenvalues --   -0.38378
 Alpha virt. eigenvalues --    0.03545   0.06993   0.08597   0.09893   0.11147
 Alpha virt. eigenvalues --    0.11494   0.14851   0.15561   0.17452   0.20162
 Alpha virt. eigenvalues --    0.20333   0.25893   0.32961   0.34154   0.35083

 Mulliken charges:
               1
     1  C   -0.092183
     2  C    0.005036
     3  N   -0.215195
     4  H    0.101285
     5  H    0.097584
     6  H    0.103472
 Sum of Mulliken charges =   0.00000

 Dipole moment (field-independent basis, Debye):
    X=             -4.1172    Y=              0.0031    Z=              0.0895  Tot=              4.1182
 Quadrupole moment (field-independent basis, Debye-Ang):
   XX=            -21.0999   YY=            -17.6443   ZZ=            -17.8498
   XY=              0.1582   XZ=              0.2879   YZ=             -0.0609

 Normal termination of Gaussian 09 at Wed Aug 26 22:11:42 2020.
