 Gaussian 09, Revision D.01,
 Gaussian 09:  ES64L-G09RevD.01 24-Apr-2013

 --------------------
 #p B2PLYPD3/Def2QZVP
 --------------------

 ------------
 cyanomethane
 ------------
 Symbolic Z-matrix:
 Charge =  0 Multiplicity = 1

                         Standard orientation:
 ---------------------------------------------------------------------
 Center     Atomic      Atomic             Coordinates (Angstroms)
 Number     Number       Type             X           Y           Z
 ---------------------------------------------------------------------
      1          6           0        1.191729   -0.011319    0.006684
      2          6           0       -0.284927    0.010711   -0.012372
      3          7           0       -1.433955   -0.001692    0.005613
      4          1           0        1.502004   -0.863142   -0.550529
      5          1           0        1.527524   -0.040103    1.016769
      6          1           0        1.567337    0.918736   -0.471403
 ---------------------------------------------------------------------

 SCF Done:  E(RB2PLYPD3) =  -132.534775917     A.U. after   11 cycles
 E2(B2PLYPD3) =    -0.1798764530D+00 E(B2PLYPD3) =    -0.13271465237043D+03

 The electronic state is 1-A.
 Alpha  occ. eigenvalues --  -14.83963 -10.67053 -10.66060  -1.04227  -0.89178
 Alpha  occ. eigenvalues --   -0.58953  -0.55014  -0.53600  -0.44643  -0.39315
 Alpha  occ. eigenvalues --   -0.39158
 Alpha virt. eigenvalues --    0.03793   0.08109   0.08520   0.10226   0.11296
 Alpha virt. eigenvalues --    0.11478   0.15226   0.16051   0.16292   0.20051
 Alpha virt. eigenvalues --    0.20084   0.24976   0.32550   0.34381   0.35182

 Mulliken charges:
               1
     1  C   -0.090462
     2  C   -0.005471
     3  N   -0.204066
     4  H    0.102730
     5  H    0.101542
     6  H    0.095728
 Sum of Mulliken charges =   0.00000

 Dipole moment (field-independent basis, Debye):
    X=              4.1217    Y=              0.0009    Z=             -0.0042  Tot=              4.1217
 Quadrupole moment (field-independent basis, Debye-Ang):
   XX=            -21.1286   YY=            -17.6936   ZZ=            -17.6880
   XY=              0.0396   XZ=              0.0365   YZ=              0.0442

 Normal termination of Gaussian 09 at Thu Aug 27 00:09:10 2020.
