 Gaussian 09, Revision D.01,
 Gaussian 09:  ES64L-G09RevD.01 24-Apr-2013

 --------------------
 #p B2PLYPD3/Def2QZVP
 --------------------

 ------------
 cyanomethane
 ------------
 Symbolic Z-matrix:
 Charge =  0 Multiplicity = 1

                         Standard orientation:
 ---------------------------------------------------------------------
 Center     Atomic      Atomic             Coordinates (Angstroms)
 Number     Number       Type             X           Y           Z
 ---------------------------------------------------------------------
      1          6           0        1.183817   -0.000092   -0.007199
      2          6           0       -0.282064   -0.001436    0.016135
      3          7           0       -1.434104    0.000691   -0.007596
      4          1           0        1.541544    1.008329   -0.103871
      5          1           0        1.541789   -0.592451   -0.815184
      6          1           0        1.544883   -0.411544    0.918611
 ---------------------------------------------------------------------

 SCF Done:  E(RB2PLYPD3) =  -132.535662657     A.U. after   11 cycles
 E2(B2PLYPD3) =    -0.1800232219D+00 E(B2PLYPD3) =    -0.13271568587850D+03

 The electronic state is 1-A.
 Alpha  occ. eigenvalues --  -14.84102 -10.66654 -10.66174  -1.04168  -0.89497
 Alpha  occ. eigenvalues --   -0.59634  -0.54514  -0.54189  -0.44737  -0.39212
 Alpha  occ. eigenvalues --   -0.39148
 Alpha virt. eigenvalues --    0.03846   0.08215   0.08279   0.10207   0.11378
 Alpha virt. eigenvalues --    0.11408   0.15383   0.16130   0.16506   0.20080
 Alpha virt. eigenvalues --    0.20085   0.25196   0.32802   0.34786   0.35087

 Mulliken charges:
               1
     1  C   -0.079892
     2  C   -0.003359
     3  N   -0.205538
     4  H    0.096449
     5  H    0.097444
     6  H    0.094896
 Sum of Mulliken charges =   0.00000

 Dipole moment (field-independent basis, Debye):
    X=              4.1325    Y=             -0.0031    Z=              0.0136  Tot=              4.1325
 Quadrupole moment (field-independent basis, Debye-Ang):
   XX=            -20.9806   YY=            -17.7049   ZZ=            -17.7313
   XY=             -0.0024   XZ=             -0.0323   YZ=              0.0135

 Normal termination of Gaussian 09 at Wed Aug 26 09:32:08 2020.
