 Gaussian 09, Revision D.01,
 Gaussian 09:  ES64L-G09RevD.01 24-Apr-2013

 --------------------
 #p B2PLYPD3/Def2QZVP
 --------------------

 ------------
 cyanomethane
 ------------
 Symbolic Z-matrix:
 Charge =  0 Multiplicity = 1

                         Standard orientation:
 ---------------------------------------------------------------------
 Center     Atomic      Atomic             Coordinates (Angstroms)
 Number     Number       Type             X           Y           Z
 ---------------------------------------------------------------------
      1          6           0       -1.171217    0.008518    0.003821
      2          6           0        0.271730   -0.000457    0.017041
      3          7           0        1.430848    0.002382   -0.011015
      4          1           0       -1.502771   -0.386883    0.913585
      5          1           0       -1.531987   -0.665480   -0.788327
      6          1           0       -1.584253    0.987321   -0.173328
 ---------------------------------------------------------------------

 SCF Done:  E(RB2PLYPD3) =  -132.533610070     A.U. after   12 cycles
 E2(B2PLYPD3) =    -0.1807209967D+00 E(B2PLYPD3) =    -0.13271433106682D+03

 The electronic state is 1-A.
 Alpha  occ. eigenvalues --  -14.84282 -10.66533 -10.66300  -1.03946  -0.89876
 Alpha  occ. eigenvalues --   -0.60139  -0.55085  -0.53654  -0.44800  -0.38999
 Alpha  occ. eigenvalues --   -0.38784
 Alpha virt. eigenvalues --    0.03808   0.07650   0.08267   0.10145   0.11301
 Alpha virt. eigenvalues --    0.11584   0.15536   0.15900   0.16741   0.20097
 Alpha virt. eigenvalues --    0.20177   0.25608   0.32919   0.34341   0.35280

 Mulliken charges:
               1
     1  C   -0.078108
     2  C   -0.000356
     3  N   -0.209537
     4  H    0.097654
     5  H    0.092698
     6  H    0.097650
 Sum of Mulliken charges =   0.00000

 Dipole moment (field-independent basis, Debye):
    X=             -4.1363    Y=             -0.0223    Z=              0.0198  Tot=              4.1364
 Quadrupole moment (field-independent basis, Debye-Ang):
   XX=            -20.9660   YY=            -17.6831   ZZ=            -17.7868
   XY=             -0.0174   XZ=              0.0819   YZ=             -0.0476

 Normal termination of Gaussian 09 at Wed Aug 26 10:39:46 2020.
