 Gaussian 09, Revision D.01,
 Gaussian 09:  ES64L-G09RevD.01 24-Apr-2013

 --------------------
 #p B2PLYPD3/Def2QZVP
 --------------------

 ------------
 cyanomethane
 ------------
 Symbolic Z-matrix:
 Charge =  0 Multiplicity = 1

                         Standard orientation:
 ---------------------------------------------------------------------
 Center     Atomic      Atomic             Coordinates (Angstroms)
 Number     Number       Type             X           Y           Z
 ---------------------------------------------------------------------
      1          6           0        1.181081    0.026402    0.026391
      2          6           0       -0.288059   -0.083340    0.010062
      3          7           0       -1.413380    0.040730   -0.015213
      4          1           0        1.522687    1.063506   -0.229562
      5          1           0        1.591934   -0.682485   -0.802835
      6          1           0        1.420908   -0.324499    0.920169
 ---------------------------------------------------------------------

 SCF Done:  E(RB2PLYPD3) =  -132.520603474     A.U. after   12 cycles
 E2(B2PLYPD3) =    -0.1789548551D+00 E(B2PLYPD3) =    -0.13269955832950D+03

 The electronic state is 1-A.
 Alpha  occ. eigenvalues --  -14.83482 -10.67229 -10.65430  -1.04959  -0.89205
 Alpha  occ. eigenvalues --   -0.58278  -0.56290  -0.52087  -0.44594  -0.39797
 Alpha  occ. eigenvalues --   -0.39279
 Alpha virt. eigenvalues --    0.03462   0.07360   0.09462   0.10149   0.11275
 Alpha virt. eigenvalues --    0.11925   0.15167   0.15520   0.16889   0.19892
 Alpha virt. eigenvalues --    0.20052   0.25624   0.32019   0.33849   0.35336

 Mulliken charges:
               1
     1  C   -0.106833
     2  C   -0.006122
     3  N   -0.194971
     4  H    0.106688
     5  H    0.089325
     6  H    0.111913
 Sum of Mulliken charges =   0.00000

 Dipole moment (field-independent basis, Debye):
    X=              4.0294    Y=             -0.0650    Z=              0.0288  Tot=              4.0300
 Quadrupole moment (field-independent basis, Debye-Ang):
   XX=            -21.2595   YY=            -17.5582   ZZ=            -17.6549
   XY=              0.2158   XZ=             -0.1991   YZ=             -0.1294

 Normal termination of Gaussian 09 at Wed Aug 26 23:51:55 2020.
