 Gaussian 09, Revision D.01,
 Gaussian 09:  ES64L-G09RevD.01 24-Apr-2013

 --------------------
 #p B2PLYPD3/Def2QZVP
 --------------------

 ------------
 cyanomethane
 ------------
 Symbolic Z-matrix:
 Charge =  0 Multiplicity = 1

                         Standard orientation:
 ---------------------------------------------------------------------
 Center     Atomic      Atomic             Coordinates (Angstroms)
 Number     Number       Type             X           Y           Z
 ---------------------------------------------------------------------
      1          6           0        1.172000    0.000989   -0.004674
      2          6           0       -0.277443   -0.008744    0.017333
      3          7           0       -1.439866    0.003897   -0.007061
      4          1           0        1.593101   -0.370986    0.941674
      5          1           0        1.559479    1.024937   -0.159094
      6          1           0        1.559145   -0.634695   -0.809110
 ---------------------------------------------------------------------

 SCF Done:  E(RB2PLYPD3) =  -132.534265496     A.U. after   11 cycles
 E2(B2PLYPD3) =    -0.1813666470D+00 E(B2PLYPD3) =    -0.13271563214302D+03

 The electronic state is 1-A.
 Alpha  occ. eigenvalues --  -14.84508 -10.67399 -10.66572  -1.03859  -0.89064
 Alpha  occ. eigenvalues --   -0.60174  -0.53591  -0.53390  -0.44914  -0.38864
 Alpha  occ. eigenvalues --   -0.38841
 Alpha virt. eigenvalues --    0.03687   0.07453   0.07535   0.10139   0.11439
 Alpha virt. eigenvalues --    0.11471   0.15446   0.16385   0.16533   0.20109
 Alpha virt. eigenvalues --    0.20130   0.25510   0.32621   0.34418   0.34547

 Mulliken charges:
               1
     1  C   -0.079734
     2  C    0.002015
     3  N   -0.209041
     4  H    0.094257
     5  H    0.095957
     6  H    0.096546
 Sum of Mulliken charges =   0.00000

 Dipole moment (field-independent basis, Debye):
    X=              4.1408    Y=             -0.0069    Z=              0.0084  Tot=              4.1408
 Quadrupole moment (field-independent basis, Debye-Ang):
   XX=            -20.9071   YY=            -17.8118   ZZ=            -17.8429
   XY=              0.0076   XZ=             -0.0140   YZ=              0.0096

 Normal termination of Gaussian 09 at Wed Aug 26 13:25:27 2020.
