 Gaussian 09, Revision D.01,
 Gaussian 09:  ES64L-G09RevD.01 24-Apr-2013

 --------------------
 #p B2PLYPD3/Def2QZVP
 --------------------

 ------------
 cyanomethane
 ------------
 Symbolic Z-matrix:
 Charge =  0 Multiplicity = 1

                         Standard orientation:
 ---------------------------------------------------------------------
 Center     Atomic      Atomic             Coordinates (Angstroms)
 Number     Number       Type             X           Y           Z
 ---------------------------------------------------------------------
      1          6           0       -1.177740   -0.010956   -0.006848
      2          6           0        0.272202    0.026319   -0.016305
      3          7           0        1.432400   -0.018826    0.007651
      4          1           0       -1.465472    0.962197   -0.398920
      5          1           0       -1.517582   -0.079896    1.042306
      6          1           0       -1.610517   -0.842701   -0.558025
 ---------------------------------------------------------------------

 SCF Done:  E(RB2PLYPD3) =  -132.532691699     A.U. after   12 cycles
 E2(B2PLYPD3) =    -0.1811885560D+00 E(B2PLYPD3) =    -0.13271388025550D+03

 The electronic state is 1-A.
 Alpha  occ. eigenvalues --  -14.84299 -10.67227 -10.66361  -1.03829  -0.89380
 Alpha  occ. eigenvalues --   -0.59594  -0.54534  -0.53484  -0.44748  -0.38887
 Alpha  occ. eigenvalues --   -0.38681
 Alpha virt. eigenvalues --    0.03702   0.07464   0.08109   0.10085   0.11307
 Alpha virt. eigenvalues --    0.11565   0.15298   0.15578   0.16867   0.20090
 Alpha virt. eigenvalues --    0.20208   0.25515   0.32728   0.33994   0.34889

 Mulliken charges:
               1
     1  C   -0.092069
     2  C    0.000630
     3  N   -0.210450
     4  H    0.101540
     5  H    0.097898
     6  H    0.102450
 Sum of Mulliken charges =   0.00000

 Dipole moment (field-independent basis, Debye):
    X=             -4.1228    Y=              0.0330    Z=              0.0077  Tot=              4.1230
 Quadrupole moment (field-independent basis, Debye-Ang):
   XX=            -21.1443   YY=            -17.6468   ZZ=            -17.8280
   XY=              0.1960   XZ=             -0.0623   YZ=              0.0124

 Normal termination of Gaussian 09 at Wed Aug 26 13:17:17 2020.
