 Gaussian 09, Revision D.01,
 Gaussian 09:  ES64L-G09RevD.01 24-Apr-2013

 --------------------
 #p B2PLYPD3/Def2QZVP
 --------------------

 ------------
 cyanomethane
 ------------
 Symbolic Z-matrix:
 Charge =  0 Multiplicity = 1

                         Standard orientation:
 ---------------------------------------------------------------------
 Center     Atomic      Atomic             Coordinates (Angstroms)
 Number     Number       Type             X           Y           Z
 ---------------------------------------------------------------------
      1          6           0        1.171850    0.000981   -0.003751
      2          6           0       -0.284086   -0.016424    0.007801
      3          7           0       -1.429503    0.011464   -0.007934
      4          1           0        1.616957    0.977772   -0.344589
      5          1           0        1.567148   -0.801620   -0.626921
      6          1           0        1.495830   -0.163745    1.002748
 ---------------------------------------------------------------------

 SCF Done:  E(RB2PLYPD3) =  -132.534317076     A.U. after   12 cycles
 E2(B2PLYPD3) =    -0.1798550062D+00 E(B2PLYPD3) =    -0.13271417208222D+03

 The electronic state is 1-A.
 Alpha  occ. eigenvalues --  -14.83984 -10.67230 -10.66034  -1.04495  -0.89087
 Alpha  occ. eigenvalues --   -0.59783  -0.54076  -0.53187  -0.44800  -0.39304
 Alpha  occ. eigenvalues --   -0.39226
 Alpha virt. eigenvalues --    0.03694   0.07575   0.08343   0.10182   0.11551
 Alpha virt. eigenvalues --    0.11643   0.15466   0.15933   0.17074   0.20041
 Alpha virt. eigenvalues --    0.20084   0.25421   0.32746   0.34421   0.34744

 Mulliken charges:
               1
     1  C   -0.084221
     2  C   -0.001768
     3  N   -0.201236
     4  H    0.094415
     5  H    0.096237
     6  H    0.096572
 Sum of Mulliken charges =   0.00000

 Dipole moment (field-independent basis, Debye):
    X=              4.1129    Y=             -0.0302    Z=              0.0365  Tot=              4.1131
 Quadrupole moment (field-independent basis, Debye-Ang):
   XX=            -20.9343   YY=            -17.7074   ZZ=            -17.7954
   XY=              0.0862   XZ=             -0.0609   YZ=              0.0173

 Normal termination of Gaussian 09 at Wed Aug 26 18:28:54 2020.
