 Gaussian 09, Revision D.01,
 Gaussian 09:  ES64L-G09RevD.01 24-Apr-2013

 --------------------
 #p B2PLYPD3/Def2QZVP
 --------------------

 ------------
 cyanomethane
 ------------
 Symbolic Z-matrix:
 Charge =  0 Multiplicity = 1

                         Standard orientation:
 ---------------------------------------------------------------------
 Center     Atomic      Atomic             Coordinates (Angstroms)
 Number     Number       Type             X           Y           Z
 ---------------------------------------------------------------------
      1          6           0        1.213172    0.014492    0.004250
      2          6           0       -0.303928   -0.055373   -0.043472
      3          7           0       -1.426399    0.029931    0.025033
      4          1           0        1.532784   -0.317051    0.952469
      5          1           0        1.529130    0.982198   -0.173563
      6          1           0        1.467414   -0.629374   -0.718805
 ---------------------------------------------------------------------

 SCF Done:  E(RB2PLYPD3) =  -132.524063311     A.U. after   11 cycles
 E2(B2PLYPD3) =    -0.1777327212D+00 E(B2PLYPD3) =    -0.13270179603176D+03

 The electronic state is 1-A.
 Alpha  occ. eigenvalues --  -14.83328 -10.65801 -10.65382  -1.04995  -0.89789
 Alpha  occ. eigenvalues --   -0.58327  -0.55880  -0.54809  -0.44453  -0.40017
 Alpha  occ. eigenvalues --   -0.39947
 Alpha virt. eigenvalues --    0.03850   0.09002   0.09945   0.10210   0.11130
 Alpha virt. eigenvalues --    0.11396   0.15210   0.15388   0.17071   0.19871
 Alpha virt. eigenvalues --    0.20028   0.24556   0.32898   0.35433   0.35838

 Mulliken charges:
               1
     1  C   -0.086945
     2  C   -0.015512
     3  N   -0.191606
     4  H    0.095300
     5  H    0.098193
     6  H    0.100570
 Sum of Mulliken charges =   0.00000

 Dipole moment (field-independent basis, Debye):
    X=              4.1000    Y=             -0.0552    Z=             -0.0438  Tot=              4.1006
 Quadrupole moment (field-independent basis, Debye-Ang):
   XX=            -21.0231   YY=            -17.5388   ZZ=            -17.5831
   XY=              0.1901   XZ=              0.1795   YZ=              0.0098

 Normal termination of Gaussian 09 at Wed Aug 26 22:12:37 2020.
