 Gaussian 09, Revision D.01,
 Gaussian 09:  ES64L-G09RevD.01 24-Apr-2013

 --------------------
 #p B2PLYPD3/Def2QZVP
 --------------------

 ------------
 cyanomethane
 ------------
 Symbolic Z-matrix:
 Charge =  0 Multiplicity = 1

                         Standard orientation:
 ---------------------------------------------------------------------
 Center     Atomic      Atomic             Coordinates (Angstroms)
 Number     Number       Type             X           Y           Z
 ---------------------------------------------------------------------
      1          6           0        1.170198   -0.009020    0.004178
      2          6           0       -0.287317    0.010707    0.029796
      3          7           0       -1.429660    0.000631   -0.013245
      4          1           0        1.631615    0.990347   -0.253603
      5          1           0        1.489372   -0.693638   -0.768500
      6          1           0        1.589346   -0.311246    0.910969
 ---------------------------------------------------------------------

 SCF Done:  E(RB2PLYPD3) =  -132.533372880     A.U. after   12 cycles
 E2(B2PLYPD3) =    -0.1795140803D+00 E(B2PLYPD3) =    -0.13271288696042D+03

 The electronic state is 1-A.
 Alpha  occ. eigenvalues --  -14.83964 -10.66895 -10.66024  -1.04639  -0.89242
 Alpha  occ. eigenvalues --   -0.60302  -0.54458  -0.52837  -0.44843  -0.39508
 Alpha  occ. eigenvalues --   -0.39284
 Alpha virt. eigenvalues --    0.03733   0.07676   0.08455   0.10224   0.11461
 Alpha virt. eigenvalues --    0.11759   0.15469   0.16432   0.16904   0.19986
 Alpha virt. eigenvalues --    0.20073   0.25409   0.32714   0.34408   0.35178

 Mulliken charges:
               1
     1  C   -0.075698
     2  C   -0.000772
     3  N   -0.199786
     4  H    0.087791
     5  H    0.094201
     6  H    0.094265
 Sum of Mulliken charges =   0.00000

 Dipole moment (field-independent basis, Debye):
    X=              4.1169    Y=             -0.0225    Z=              0.0171  Tot=              4.1170
 Quadrupole moment (field-independent basis, Debye-Ang):
   XX=            -20.7947   YY=            -17.7814   ZZ=            -17.7541
   XY=              0.0469   XZ=             -0.0356   YZ=              0.0035

 Normal termination of Gaussian 09 at Wed Aug 26 14:07:08 2020.
