 Gaussian 09, Revision D.01,
 Gaussian 09:  ES64L-G09RevD.01 24-Apr-2013

 --------------------
 #p B2PLYPD3/Def2QZVP
 --------------------

 ------------
 cyanomethane
 ------------
 Symbolic Z-matrix:
 Charge =  0 Multiplicity = 1

                         Standard orientation:
 ---------------------------------------------------------------------
 Center     Atomic      Atomic             Coordinates (Angstroms)
 Number     Number       Type             X           Y           Z
 ---------------------------------------------------------------------
      1          6           0       -1.179061   -0.004492    0.022942
      2          6           0        0.275843    0.021849    0.017920
      3          7           0        1.428780   -0.012231   -0.015527
      4          1           0       -1.479310   -0.181167    0.971544
      5          1           0       -1.572661   -0.829803   -0.698370
      6          1           0       -1.530181    0.992441   -0.409655
 ---------------------------------------------------------------------

 SCF Done:  E(RB2PLYPD3) =  -132.525341629     A.U. after   12 cycles
 E2(B2PLYPD3) =    -0.1807057879D+00 E(B2PLYPD3) =    -0.13270604741735D+03

 The electronic state is 1-A.
 Alpha  occ. eigenvalues --  -14.84085 -10.67579 -10.66120  -1.04103  -0.89212
 Alpha  occ. eigenvalues --   -0.59200  -0.55525  -0.52144  -0.44695  -0.39183
 Alpha  occ. eigenvalues --   -0.38703
 Alpha virt. eigenvalues --    0.03503   0.07066   0.08611   0.10150   0.11200
 Alpha virt. eigenvalues --    0.11773   0.15333   0.15855   0.16319   0.20034
 Alpha virt. eigenvalues --    0.20154   0.25357   0.32268   0.32983   0.35094

 Mulliken charges:
               1
     1  C   -0.100924
     2  C   -0.001158
     3  N   -0.206396
     4  H    0.111180
     5  H    0.096733
     6  H    0.100565
 Sum of Mulliken charges =   0.00000

 Dipole moment (field-independent basis, Debye):
    X=             -4.0939    Y=              0.0164    Z=              0.0233  Tot=              4.0940
 Quadrupole moment (field-independent basis, Debye-Ang):
   XX=            -21.2579   YY=            -17.7462   ZZ=            -17.6576
   XY=              0.0978   XZ=              0.1515   YZ=             -0.0723

 Normal termination of Gaussian 09 at Wed Aug 26 15:40:36 2020.
