 Gaussian 09, Revision D.01,
 Gaussian 09:  ES64L-G09RevD.01 24-Apr-2013

 --------------------
 #p B2PLYPD3/Def2QZVP
 --------------------

 ------------
 cyanomethane
 ------------
 Symbolic Z-matrix:
 Charge =  0 Multiplicity = 1

                         Standard orientation:
 ---------------------------------------------------------------------
 Center     Atomic      Atomic             Coordinates (Angstroms)
 Number     Number       Type             X           Y           Z
 ---------------------------------------------------------------------
      1          6           0       -1.172590    0.006902    0.006084
      2          6           0        0.282092   -0.004474   -0.013316
      3          7           0        1.431160   -0.001665    0.000982
      4          1           0       -1.544433    0.966016   -0.359903
      5          1           0       -1.492161   -0.156194    1.019374
      6          1           0       -1.638537   -0.812736   -0.622951
 ---------------------------------------------------------------------

 SCF Done:  E(RB2PLYPD3) =  -132.534245397     A.U. after   12 cycles
 E2(B2PLYPD3) =    -0.1801657366D+00 E(B2PLYPD3) =    -0.13271441113316D+03

 The electronic state is 1-A.
 Alpha  occ. eigenvalues --  -14.84064 -10.67382 -10.66121  -1.04358  -0.89024
 Alpha  occ. eigenvalues --   -0.59703  -0.54344  -0.52873  -0.44798  -0.39230
 Alpha  occ. eigenvalues --   -0.39097
 Alpha virt. eigenvalues --    0.03705   0.07495   0.08160   0.10200   0.11496
 Alpha virt. eigenvalues --    0.11667   0.15405   0.16180   0.16701   0.20042
 Alpha virt. eigenvalues --    0.20090   0.25408   0.32537   0.34347   0.34792

 Mulliken charges:
               1
     1  C   -0.086314
     2  C   -0.001354
     3  N   -0.202998
     4  H    0.098716
     5  H    0.099652
     6  H    0.092298
 Sum of Mulliken charges =   0.00000

 Dipole moment (field-independent basis, Debye):
    X=             -4.1158    Y=              0.0057    Z=              0.0171  Tot=              4.1159
 Quadrupole moment (field-independent basis, Debye-Ang):
   XX=            -20.9772   YY=            -17.7382   ZZ=            -17.7822
   XY=              0.0608   XZ=              0.0461   YZ=             -0.0489

 Normal termination of Gaussian 09 at Wed Aug 26 08:37:00 2020.
