 Gaussian 09, Revision D.01,
 Gaussian 09:  ES64L-G09RevD.01 24-Apr-2013

 --------------------
 #p B2PLYPD3/Def2QZVP
 --------------------

 ------------
 cyanomethane
 ------------
 Symbolic Z-matrix:
 Charge =  0 Multiplicity = 1

                         Standard orientation:
 ---------------------------------------------------------------------
 Center     Atomic      Atomic             Coordinates (Angstroms)
 Number     Number       Type             X           Y           Z
 ---------------------------------------------------------------------
      1          6           0       -1.187744    0.019824    0.005858
      2          6           0        0.266287   -0.031276    0.048512
      3          7           0        1.449276    0.022423   -0.031038
      4          1           0       -1.429235   -0.347738    0.859578
      5          1           0       -1.523635   -0.727505   -0.739643
      6          1           0       -1.663320    0.986992   -0.228884
 ---------------------------------------------------------------------

 SCF Done:  E(RB2PLYPD3) =  -132.512574040     A.U. after   13 cycles
 E2(B2PLYPD3) =    -0.1833222720D+00 E(B2PLYPD3) =    -0.13269589631177D+03

 The electronic state is 1-A.
 Alpha  occ. eigenvalues --  -14.85120 -10.67205 -10.66168  -1.02926  -0.90547
 Alpha  occ. eigenvalues --   -0.60101  -0.56371  -0.53215  -0.44912  -0.38492
 Alpha  occ. eigenvalues --   -0.38170
 Alpha virt. eigenvalues --    0.03482   0.06653   0.08684   0.09913   0.10953
 Alpha virt. eigenvalues --    0.11352   0.14996   0.15491   0.17457   0.20200
 Alpha virt. eigenvalues --    0.20433   0.25590   0.32438   0.34078   0.35362

 Mulliken charges:
               1
     1  C   -0.089717
     2  C    0.006559
     3  N   -0.220940
     4  H    0.110680
     5  H    0.091113
     6  H    0.102305
 Sum of Mulliken charges =   0.00000

 Dipole moment (field-independent basis, Debye):
    X=             -4.1733    Y=             -0.0693    Z=              0.0551  Tot=              4.1742
 Quadrupole moment (field-independent basis, Debye-Ang):
   XX=            -20.9049   YY=            -17.6818   ZZ=            -17.9599
   XY=             -0.1385   XZ=              0.2027   YZ=             -0.0843

 Normal termination of Gaussian 09 at Wed Aug 26 21:53:57 2020.
