 Gaussian 09, Revision D.01,
 Gaussian 09:  ES64L-G09RevD.01 24-Apr-2013

 --------------------
 #p B2PLYPD3/Def2QZVP
 --------------------

 ------------
 cyanomethane
 ------------
 Symbolic Z-matrix:
 Charge =  0 Multiplicity = 1

                         Standard orientation:
 ---------------------------------------------------------------------
 Center     Atomic      Atomic             Coordinates (Angstroms)
 Number     Number       Type             X           Y           Z
 ---------------------------------------------------------------------
      1          6           0       -1.172023   -0.003996    0.019089
      2          6           0        0.281029   -0.006667   -0.035385
      3          7           0        1.422631    0.003951    0.012561
      4          1           0       -1.544912    1.038999   -0.130614
      5          1           0       -1.486532   -0.384005    0.943054
      6          1           0       -1.581009   -0.618672   -0.802589
 ---------------------------------------------------------------------

 SCF Done:  E(RB2PLYPD3) =  -132.534426334     A.U. after   11 cycles
 E2(B2PLYPD3) =    -0.1794630164D+00 E(B2PLYPD3) =    -0.13271388935028D+03

 The electronic state is 1-A.
 Alpha  occ. eigenvalues --  -14.83800 -10.67046 -10.65810  -1.04580  -0.89279
 Alpha  occ. eigenvalues --   -0.59489  -0.54813  -0.53196  -0.44706  -0.39407
 Alpha  occ. eigenvalues --   -0.39189
 Alpha virt. eigenvalues --    0.03763   0.07917   0.08312   0.10181   0.11540
 Alpha virt. eigenvalues --    0.11714   0.15441   0.16144   0.16517   0.20011
 Alpha virt. eigenvalues --    0.20062   0.25514   0.32774   0.34048   0.35251

 Mulliken charges:
               1
     1  C   -0.089112
     2  C   -0.003614
     3  N   -0.200497
     4  H    0.095732
     5  H    0.103409
     6  H    0.094081
 Sum of Mulliken charges =   0.00000

 Dipole moment (field-independent basis, Debye):
    X=             -4.0932    Y=             -0.0105    Z=             -0.0162  Tot=              4.0932
 Quadrupole moment (field-independent basis, Debye-Ang):
   XX=            -21.0672   YY=            -17.6960   ZZ=            -17.6734
   XY=             -0.0145   XZ=             -0.0048   YZ=             -0.0460

 Normal termination of Gaussian 09 at Wed Aug 26 13:47:48 2020.
