 Gaussian 09, Revision D.01,
 Gaussian 09:  ES64L-G09RevD.01 24-Apr-2013

 --------------------
 #p B2PLYPD3/Def2QZVP
 --------------------

 ------------
 cyanomethane
 ------------
 Symbolic Z-matrix:
 Charge =  0 Multiplicity = 1

                         Standard orientation:
 ---------------------------------------------------------------------
 Center     Atomic      Atomic             Coordinates (Angstroms)
 Number     Number       Type             X           Y           Z
 ---------------------------------------------------------------------
      1          6           0       -1.183366   -0.013761   -0.013258
      2          6           0        0.278148    0.029497    0.010336
      3          7           0        1.422375   -0.013939   -0.005899
      4          1           0       -1.519437   -0.871212   -0.558081
      5          1           0       -1.520573    0.941259   -0.444817
      6          1           0       -1.485310   -0.066890    1.061726
 ---------------------------------------------------------------------

 SCF Done:  E(RB2PLYPD3) =  -132.533854683     A.U. after   12 cycles
 E2(B2PLYPD3) =    -0.1797745984D+00 E(B2PLYPD3) =    -0.13271362928172D+03

 The electronic state is 1-A.
 Alpha  occ. eigenvalues --  -14.83737 -10.67398 -10.65784  -1.04374  -0.89127
 Alpha  occ. eigenvalues --   -0.58641  -0.54752  -0.53626  -0.44562  -0.39282
 Alpha  occ. eigenvalues --   -0.39041
 Alpha virt. eigenvalues --    0.03718   0.08139   0.08256   0.10153   0.11439
 Alpha virt. eigenvalues --    0.11689   0.15286   0.15525   0.16460   0.20033
 Alpha virt. eigenvalues --    0.20116   0.25297   0.32686   0.33768   0.34993

 Mulliken charges:
               1
     1  C   -0.103636
     2  C   -0.004683
     3  N   -0.202964
     4  H    0.107747
     5  H    0.102846
     6  H    0.100690
 Sum of Mulliken charges =   0.00000

 Dipole moment (field-independent basis, Debye):
    X=             -4.0837    Y=              0.0214    Z=              0.0160  Tot=              4.0838
 Quadrupole moment (field-independent basis, Debye-Ang):
   XX=            -21.3443   YY=            -17.5875   ZZ=            -17.6774
   XY=              0.0725   XZ=              0.0468   YZ=              0.0322

 Normal termination of Gaussian 09 at Wed Aug 26 14:08:17 2020.
