 Gaussian 09, Revision D.01,
 Gaussian 09:  ES64L-G09RevD.01 24-Apr-2013

 --------------------
 #p B2PLYPD3/Def2QZVP
 --------------------

 ------------
 cyanomethane
 ------------
 Symbolic Z-matrix:
 Charge =  0 Multiplicity = 1

                         Standard orientation:
 ---------------------------------------------------------------------
 Center     Atomic      Atomic             Coordinates (Angstroms)
 Number     Number       Type             X           Y           Z
 ---------------------------------------------------------------------
      1          6           0       -1.180958    0.004893   -0.021620
      2          6           0        0.257339   -0.007862    0.062771
      3          7           0        1.424772   -0.003257   -0.022475
      4          1           0       -1.377194    1.064693   -0.160168
      5          1           0       -1.605359   -0.393952    0.923405
      6          1           0       -1.449134   -0.630135   -0.852819
 ---------------------------------------------------------------------

 SCF Done:  E(RB2PLYPD3) =  -132.529157304     A.U. after   12 cycles
 E2(B2PLYPD3) =    -0.1820056678D+00 E(B2PLYPD3) =    -0.13271116297187D+03

 The electronic state is 1-A.
 Alpha  occ. eigenvalues --  -14.84324 -10.67191 -10.66368  -1.03415  -0.89827
 Alpha  occ. eigenvalues --   -0.58645  -0.55388  -0.54134  -0.44569  -0.38429
 Alpha  occ. eigenvalues --   -0.38365
 Alpha virt. eigenvalues --    0.03667   0.07518   0.08055   0.10110   0.11311
 Alpha virt. eigenvalues --    0.11344   0.15026   0.15561   0.15897   0.20153
 Alpha virt. eigenvalues --    0.20232   0.25759   0.32462   0.34237   0.34515

 Mulliken charges:
               1
     1  C   -0.106675
     2  C    0.000605
     3  N   -0.217806
     4  H    0.112208
     5  H    0.101083
     6  H    0.110586
 Sum of Mulliken charges =   0.00000

 Dipole moment (field-independent basis, Debye):
    X=             -4.0989    Y=              0.0017    Z=              0.0224  Tot=              4.0990
 Quadrupole moment (field-independent basis, Debye-Ang):
   XX=            -21.5090   YY=            -17.5726   ZZ=            -17.7369
   XY=              0.1586   XZ=             -0.0225   YZ=              0.0322

 Normal termination of Gaussian 09 at Wed Aug 26 22:37:44 2020.
