 Gaussian 09, Revision D.01,
 Gaussian 09:  ES64L-G09RevD.01 24-Apr-2013

 --------------------
 #p B2PLYPD3/Def2QZVP
 --------------------

 ------------
 cyanomethane
 ------------
 Symbolic Z-matrix:
 Charge =  0 Multiplicity = 1

                         Standard orientation:
 ---------------------------------------------------------------------
 Center     Atomic      Atomic             Coordinates (Angstroms)
 Number     Number       Type             X           Y           Z
 ---------------------------------------------------------------------
      1          6           0        1.182957   -0.010814   -0.001160
      2          6           0       -0.286242    0.031045    0.005297
      3          7           0       -1.425326   -0.011009    0.001270
      4          1           0        1.455207   -0.614120   -0.830698
      5          1           0        1.557954   -0.442278    0.906053
      6          1           0        1.583829    1.012073   -0.109069
 ---------------------------------------------------------------------

 SCF Done:  E(RB2PLYPD3) =  -132.535338514     A.U. after   12 cycles
 E2(B2PLYPD3) =    -0.1790774564D+00 E(B2PLYPD3) =    -0.13271441597084D+03

 The electronic state is 1-A.
 Alpha  occ. eigenvalues --  -14.83696 -10.66892 -10.65757  -1.04634  -0.89260
 Alpha  occ. eigenvalues --   -0.59146  -0.54667  -0.53822  -0.44636  -0.39468
 Alpha  occ. eigenvalues --   -0.39425
 Alpha virt. eigenvalues --    0.03822   0.08237   0.08593   0.10242   0.11540
 Alpha virt. eigenvalues --    0.11563   0.15329   0.16082   0.16505   0.20006
 Alpha virt. eigenvalues --    0.20049   0.25181   0.32738   0.34722   0.35004

 Mulliken charges:
               1
     1  C   -0.089503
     2  C   -0.006474
     3  N   -0.199096
     4  H    0.101647
     5  H    0.097847
     6  H    0.095578
 Sum of Mulliken charges =   0.00000

 Dipole moment (field-independent basis, Debye):
    X=              4.1019    Y=              0.0020    Z=             -0.0039  Tot=              4.1019
 Quadrupole moment (field-independent basis, Debye-Ang):
   XX=            -21.0744   YY=            -17.6388   ZZ=            -17.6892
   XY=             -0.0231   XZ=              0.0740   YZ=              0.0196

 Normal termination of Gaussian 09 at Wed Aug 26 12:06:00 2020.
