 Gaussian 09, Revision D.01,
 Gaussian 09:  ES64L-G09RevD.01 24-Apr-2013

 --------------------
 #p B2PLYPD3/Def2QZVP
 --------------------

 ------------
 cyanomethane
 ------------
 Symbolic Z-matrix:
 Charge =  0 Multiplicity = 1

                         Standard orientation:
 ---------------------------------------------------------------------
 Center     Atomic      Atomic             Coordinates (Angstroms)
 Number     Number       Type             X           Y           Z
 ---------------------------------------------------------------------
      1          6           0       -1.168413    0.012120   -0.001715
      2          6           0        0.275725    0.004428   -0.003135
      3          7           0        1.431816   -0.005946    0.004112
      4          1           0       -1.519501    1.001689   -0.210551
      5          1           0       -1.594211   -0.345183    0.980731
      6          1           0       -1.552873   -0.714170   -0.769869
 ---------------------------------------------------------------------

 SCF Done:  E(RB2PLYPD3) =  -132.533015510     A.U. after   12 cycles
 E2(B2PLYPD3) =    -0.1808775785D+00 E(B2PLYPD3) =    -0.13271389308860D+03

 The electronic state is 1-A.
 Alpha  occ. eigenvalues --  -14.84245 -10.67543 -10.66274  -1.04093  -0.89077
 Alpha  occ. eigenvalues --   -0.59798  -0.54492  -0.52599  -0.44830  -0.39047
 Alpha  occ. eigenvalues --   -0.38784
 Alpha virt. eigenvalues --    0.03647   0.07224   0.07914   0.10144   0.11393
 Alpha virt. eigenvalues --    0.11734   0.15446   0.16222   0.16505   0.20050
 Alpha virt. eigenvalues --    0.20154   0.25570   0.32625   0.33768   0.34857

 Mulliken charges:
               1
     1  C   -0.088119
     2  C    0.000346
     3  N   -0.206433
     4  H    0.103147
     5  H    0.095030
     6  H    0.096028
 Sum of Mulliken charges =   0.00000

 Dipole moment (field-independent basis, Debye):
    X=             -4.1185    Y=              0.0036    Z=             -0.0072  Tot=              4.1185
 Quadrupole moment (field-independent basis, Debye-Ang):
   XX=            -21.0335   YY=            -17.6894   ZZ=            -17.8587
   XY=              0.0908   XZ=             -0.0609   YZ=             -0.0213

 Normal termination of Gaussian 09 at Wed Aug 26 20:17:48 2020.
