 Gaussian 09, Revision D.01,
 Gaussian 09:  ES64L-G09RevD.01 24-Apr-2013

 --------------------
 #p B2PLYPD3/Def2QZVP
 --------------------

 ------------
 cyanomethane
 ------------
 Symbolic Z-matrix:
 Charge =  0 Multiplicity = 1

                         Standard orientation:
 ---------------------------------------------------------------------
 Center     Atomic      Atomic             Coordinates (Angstroms)
 Number     Number       Type             X           Y           Z
 ---------------------------------------------------------------------
      1          6           0        1.186171   -0.012891    0.004461
      2          6           0       -0.283443   -0.050435    0.023447
      3          7           0       -1.410485    0.029707   -0.016205
      4          1           0        1.526989    1.007861   -0.249894
      5          1           0        1.500522   -0.631555   -0.708442
      6          1           0        1.429519   -0.204297    0.904325
 ---------------------------------------------------------------------

 SCF Done:  E(RB2PLYPD3) =  -132.513103820     A.U. after   12 cycles
 E2(B2PLYPD3) =    -0.1777862304D+00 E(B2PLYPD3) =    -0.13269089005015D+03

 The electronic state is 1-A.
 Alpha  occ. eigenvalues --  -14.83321 -10.65270 -10.64885  -1.04981  -0.91075
 Alpha  occ. eigenvalues --   -0.59047  -0.58409  -0.53810  -0.44503  -0.39966
 Alpha  occ. eigenvalues --   -0.39511
 Alpha virt. eigenvalues --    0.03852   0.08718   0.10128   0.10295   0.11223
 Alpha virt. eigenvalues --    0.11683   0.15553   0.15691   0.16631   0.19967
 Alpha virt. eigenvalues --    0.20058   0.25230   0.33170   0.34404   0.36884

 Mulliken charges:
               1
     1  C   -0.088717
     2  C   -0.011298
     3  N   -0.195656
     4  H    0.088172
     5  H    0.099628
     6  H    0.107870
 Sum of Mulliken charges =   0.00000

 Dipole moment (field-independent basis, Debye):
    X=              4.0744    Y=             -0.0426    Z=              0.0277  Tot=              4.0747
 Quadrupole moment (field-independent basis, Debye-Ang):
   XX=            -21.0269   YY=            -17.5792   ZZ=            -17.4330
   XY=              0.2207   XZ=             -0.1457   YZ=              0.0504

 Normal termination of Gaussian 09 at Wed Aug 26 21:04:22 2020.
