 Gaussian 09, Revision D.01,
 Gaussian 09:  ES64L-G09RevD.01 24-Apr-2013

 --------------------
 #p B2PLYPD3/Def2QZVP
 --------------------

 ------------
 cyanomethane
 ------------
 Symbolic Z-matrix:
 Charge =  0 Multiplicity = 1

                         Standard orientation:
 ---------------------------------------------------------------------
 Center     Atomic      Atomic             Coordinates (Angstroms)
 Number     Number       Type             X           Y           Z
 ---------------------------------------------------------------------
      1          6           0       -1.175397    0.003066    0.007728
      2          6           0        0.280155    0.014509    0.000644
      3          7           0        1.426678   -0.004802   -0.000173
      4          1           0       -1.544197   -0.208033    0.996461
      5          1           0       -1.498347   -0.831043   -0.677494
      6          1           0       -1.572754    0.967245   -0.367987
 ---------------------------------------------------------------------

 SCF Done:  E(RB2PLYPD3) =  -132.534638496     A.U. after   11 cycles
 E2(B2PLYPD3) =    -0.1799635362D+00 E(B2PLYPD3) =    -0.13271460203251D+03

 The electronic state is 1-A.
 Alpha  occ. eigenvalues --  -14.83899 -10.67523 -10.65950  -1.04394  -0.88969
 Alpha  occ. eigenvalues --   -0.59275  -0.54187  -0.53278  -0.44698  -0.39265
 Alpha  occ. eigenvalues --   -0.39056
 Alpha virt. eigenvalues --    0.03686   0.07808   0.08067   0.10188   0.11487
 Alpha virt. eigenvalues --    0.11725   0.15365   0.16015   0.16491   0.20034
 Alpha virt. eigenvalues --    0.20094   0.25365   0.32674   0.33833   0.34853

 Mulliken charges:
               1
     1  C   -0.095678
     2  C   -0.002649
     3  N   -0.202350
     4  H    0.101880
     5  H    0.098311
     6  H    0.100486
 Sum of Mulliken charges =   0.00000

 Dipole moment (field-independent basis, Debye):
    X=             -4.1010    Y=             -0.0049    Z=              0.0058  Tot=              4.1010
 Quadrupole moment (field-independent basis, Debye-Ang):
   XX=            -21.1480   YY=            -17.6720   ZZ=            -17.7377
   XY=              0.0024   XZ=             -0.0278   YZ=             -0.0335

 Normal termination of Gaussian 09 at Wed Aug 26 09:55:19 2020.
