 Gaussian 09, Revision D.01,
 Gaussian 09:  ES64L-G09RevD.01 24-Apr-2013

 --------------------
 #p B2PLYPD3/Def2QZVP
 --------------------

 ------------
 cyanomethane
 ------------
 Symbolic Z-matrix:
 Charge =  0 Multiplicity = 1

                         Standard orientation:
 ---------------------------------------------------------------------
 Center     Atomic      Atomic             Coordinates (Angstroms)
 Number     Number       Type             X           Y           Z
 ---------------------------------------------------------------------
      1          6           0       -1.186537   -0.009357   -0.019850
      2          6           0        0.270397    0.020422    0.030474
      3          7           0        1.447595   -0.009725   -0.012647
      4          1           0       -1.540921    1.017398   -0.240366
      5          1           0       -1.560615   -0.294645    1.008443
      6          1           0       -1.534790   -0.721074   -0.743295
 ---------------------------------------------------------------------

 SCF Done:  E(RB2PLYPD3) =  -132.530249512     A.U. after   12 cycles
 E2(B2PLYPD3) =    -0.1828119579D+00 E(B2PLYPD3) =    -0.13271306146939D+03

 The electronic state is 1-A.
 Alpha  occ. eigenvalues --  -14.84841 -10.67699 -10.66947  -1.03158  -0.89017
 Alpha  occ. eigenvalues --   -0.59485  -0.54470  -0.53099  -0.44833  -0.38549
 Alpha  occ. eigenvalues --   -0.38328
 Alpha virt. eigenvalues --    0.03624   0.07215   0.07405   0.10071   0.11160
 Alpha virt. eigenvalues --    0.11288   0.15264   0.15667   0.16471   0.20168
 Alpha virt. eigenvalues --    0.20213   0.25403   0.32188   0.33698   0.34865

 Mulliken charges:
               1
     1  C   -0.092762
     2  C    0.003408
     3  N   -0.216778
     4  H    0.101649
     5  H    0.097411
     6  H    0.107071
 Sum of Mulliken charges =   0.00000

 Dipole moment (field-independent basis, Debye):
    X=             -4.1484    Y=              0.0116    Z=              0.0163  Tot=              4.1484
 Quadrupole moment (field-independent basis, Debye-Ang):
   XX=            -21.1723   YY=            -17.7847   ZZ=            -17.8480
   XY=              0.0484   XZ=              0.0338   YZ=              0.0490

 Normal termination of Gaussian 09 at Wed Aug 26 11:18:06 2020.
