 Gaussian 09, Revision D.01,
 Gaussian 09:  ES64L-G09RevD.01 24-Apr-2013

 --------------------
 #p B2PLYPD3/Def2QZVP
 --------------------

 ------------
 cyanomethane
 ------------
 Symbolic Z-matrix:
 Charge =  0 Multiplicity = 1

                         Standard orientation:
 ---------------------------------------------------------------------
 Center     Atomic      Atomic             Coordinates (Angstroms)
 Number     Number       Type             X           Y           Z
 ---------------------------------------------------------------------
      1          6           0        1.184020   -0.008142   -0.001439
      2          6           0       -0.278032    0.006512   -0.032137
      3          7           0       -1.443782   -0.002911    0.009643
      4          1           0        1.576777    1.036093   -0.189391
      5          1           0        1.635476   -0.719355   -0.670719
      6          1           0        1.458291   -0.286577    0.994067
 ---------------------------------------------------------------------

 SCF Done:  E(RB2PLYPD3) =  -132.532001118     A.U. after   12 cycles
 E2(B2PLYPD3) =    -0.1816100766D+00 E(B2PLYPD3) =    -0.13271361119415D+03

 The electronic state is 1-A.
 Alpha  occ. eigenvalues --  -14.84559 -10.67317 -10.66692  -1.03649  -0.89152
 Alpha  occ. eigenvalues --   -0.59880  -0.54051  -0.53464  -0.44843  -0.38883
 Alpha  occ. eigenvalues --   -0.38700
 Alpha virt. eigenvalues --    0.03697   0.07452   0.07829   0.10181   0.11208
 Alpha virt. eigenvalues --    0.11470   0.15303   0.15817   0.16834   0.20109
 Alpha virt. eigenvalues --    0.20172   0.25275   0.32230   0.34223   0.34964

 Mulliken charges:
               1
     1  C   -0.084850
     2  C    0.002355
     3  N   -0.211703
     4  H    0.096111
     5  H    0.098488
     6  H    0.099600
 Sum of Mulliken charges =   0.00000

 Dipole moment (field-independent basis, Debye):
    X=              4.1503    Y=             -0.0159    Z=              0.0252  Tot=              4.1504
 Quadrupole moment (field-independent basis, Debye-Ang):
   XX=            -20.9872   YY=            -17.7084   ZZ=            -17.9160
   XY=             -0.0670   XZ=              0.0132   YZ=              0.0200

 Normal termination of Gaussian 09 at Wed Aug 26 13:44:12 2020.
