 Gaussian 09, Revision D.01,
 Gaussian 09:  ES64L-G09RevD.01 24-Apr-2013

 --------------------
 #p B2PLYPD3/Def2QZVP
 --------------------

 ------------
 cyanomethane
 ------------
 Symbolic Z-matrix:
 Charge =  0 Multiplicity = 1

                         Standard orientation:
 ---------------------------------------------------------------------
 Center     Atomic      Atomic             Coordinates (Angstroms)
 Number     Number       Type             X           Y           Z
 ---------------------------------------------------------------------
      1          6           0       -1.178809    0.024579   -0.016228
      2          6           0        0.304686   -0.065806   -0.054844
      3          7           0        1.433133    0.029986    0.034592
      4          1           0       -1.546826    0.959441   -0.455839
      5          1           0       -1.638680   -0.018692    1.118080
      6          1           0       -1.601685   -0.903287   -0.477952
 ---------------------------------------------------------------------

 SCF Done:  E(RB2PLYPD3) =  -132.521520887     A.U. after   12 cycles
 E2(B2PLYPD3) =    -0.1800722330D+00 E(B2PLYPD3) =    -0.13270159311972D+03

 The electronic state is 1-A.
 Alpha  occ. eigenvalues --  -14.83937 -10.68973 -10.66012  -1.04983  -0.87325
 Alpha  occ. eigenvalues --   -0.58910  -0.54069  -0.50303  -0.44899  -0.39859
 Alpha  occ. eigenvalues --   -0.39202
 Alpha virt. eigenvalues --    0.03021   0.06850   0.08156   0.10065   0.11319
 Alpha virt. eigenvalues --    0.11947   0.15310   0.16002   0.17400   0.19731
 Alpha virt. eigenvalues --    0.20090   0.25335   0.31629   0.32732   0.35049

 Mulliken charges:
               1
     1  C   -0.100750
     2  C    0.001203
     3  N   -0.191362
     4  H    0.107443
     5  H    0.086982
     6  H    0.096484
 Sum of Mulliken charges =   0.00000

 Dipole moment (field-independent basis, Debye):
    X=             -4.0513    Y=             -0.0518    Z=             -0.0633  Tot=              4.0522
 Quadrupole moment (field-independent basis, Debye-Ang):
   XX=            -20.9811   YY=            -17.6511   ZZ=            -18.0208
   XY=             -0.1186   XZ=             -0.2736   YZ=             -0.0686

 Normal termination of Gaussian 09 at Wed Aug 26 18:54:32 2020.
