 Gaussian 09, Revision D.01,
 Gaussian 09:  ES64L-G09RevD.01 24-Apr-2013

 --------------------
 #p B2PLYPD3/Def2QZVP
 --------------------

 ------------
 cyanomethane
 ------------
 Symbolic Z-matrix:
 Charge =  0 Multiplicity = 1

                         Standard orientation:
 ---------------------------------------------------------------------
 Center     Atomic      Atomic             Coordinates (Angstroms)
 Number     Number       Type             X           Y           Z
 ---------------------------------------------------------------------
      1          6           0       -1.210452    0.023048    0.002565
      2          6           0        0.277738    0.049757   -0.004153
      3          7           0        1.443976   -0.038826    0.003756
      4          1           0       -1.354688    0.960905   -0.202619
      5          1           0       -1.574535   -0.381067    0.920907
      6          1           0       -1.582328   -0.744883   -0.735057
 ---------------------------------------------------------------------

 SCF Done:  E(RB2PLYPD3) =  -132.512878574     A.U. after   12 cycles
 E2(B2PLYPD3) =    -0.1818484915D+00 E(B2PLYPD3) =    -0.13269472706590D+03

 The electronic state is 1-A.
 Alpha  occ. eigenvalues --  -14.84514 -10.66625 -10.66506  -1.03413  -0.90133
 Alpha  occ. eigenvalues --   -0.59705  -0.57026  -0.52263  -0.44602  -0.38942
 Alpha  occ. eigenvalues --   -0.38533
 Alpha virt. eigenvalues --    0.03603   0.07281   0.09370   0.09964   0.10595
 Alpha virt. eigenvalues --    0.11513   0.14745   0.15712   0.16433   0.19993
 Alpha virt. eigenvalues --    0.20310   0.24729   0.32222   0.33617   0.36251

 Mulliken charges:
               1
     1  C   -0.094550
     2  C   -0.003940
     3  N   -0.214509
     4  H    0.118977
     5  H    0.099224
     6  H    0.094798
 Sum of Mulliken charges =   0.00000

 Dipole moment (field-independent basis, Debye):
    X=             -4.1364    Y=              0.0011    Z=              0.0163  Tot=              4.1364
 Quadrupole moment (field-independent basis, Debye-Ang):
   XX=            -21.2069   YY=            -17.4571   ZZ=            -17.9801
   XY=              0.5136   XZ=             -0.0995   YZ=             -0.1007

 Normal termination of Gaussian 09 at Wed Aug 26 22:58:26 2020.
