 Gaussian 09, Revision D.01,
 Gaussian 09:  ES64L-G09RevD.01 24-Apr-2013

 --------------------
 #p B2PLYPD3/Def2QZVP
 --------------------

 ------------
 cyanomethane
 ------------
 Symbolic Z-matrix:
 Charge =  0 Multiplicity = 1

                         Standard orientation:
 ---------------------------------------------------------------------
 Center     Atomic      Atomic             Coordinates (Angstroms)
 Number     Number       Type             X           Y           Z
 ---------------------------------------------------------------------
      1          6           0       -1.189689    0.009785   -0.010388
      2          6           0        0.274505    0.029037   -0.011490
      3          7           0        1.440228   -0.020977    0.010528
      4          1           0       -1.463052    1.001523   -0.003962
      5          1           0       -1.604466   -0.519919    0.901221
      6          1           0       -1.522977   -0.567699   -0.839684
 ---------------------------------------------------------------------

 SCF Done:  E(RB2PLYPD3) =  -132.528337322     A.U. after   12 cycles
 E2(B2PLYPD3) =    -0.1814821036D+00 E(B2PLYPD3) =    -0.13270981942517D+03

 The electronic state is 1-A.
 Alpha  occ. eigenvalues --  -14.84483 -10.66831 -10.66558  -1.03578  -0.89665
 Alpha  occ. eigenvalues --   -0.59355  -0.56343  -0.52717  -0.44741  -0.38929
 Alpha  occ. eigenvalues --   -0.38591
 Alpha virt. eigenvalues --    0.03672   0.07340   0.08627   0.10141   0.10916
 Alpha virt. eigenvalues --    0.11518   0.15243   0.15843   0.16424   0.20064
 Alpha virt. eigenvalues --    0.20239   0.25201   0.32446   0.33932   0.35604

 Mulliken charges:
               1
     1  C   -0.085908
     2  C   -0.001509
     3  N   -0.212817
     4  H    0.106722
     5  H    0.091875
     6  H    0.101637
 Sum of Mulliken charges =   0.00000

 Dipole moment (field-independent basis, Debye):
    X=             -4.1404    Y=              0.0141    Z=             -0.0170  Tot=              4.1405
 Quadrupole moment (field-independent basis, Debye-Ang):
   XX=            -21.1067   YY=            -17.6044   ZZ=            -17.8865
   XY=              0.2344   XZ=             -0.1172   YZ=              0.0674

 Normal termination of Gaussian 09 at Wed Aug 26 10:50:50 2020.
