 Gaussian 09, Revision D.01,
 Gaussian 09:  ES64L-G09RevD.01 24-Apr-2013

 --------------------
 #p B2PLYPD3/Def2QZVP
 --------------------

 ------------
 cyanomethane
 ------------
 Symbolic Z-matrix:
 Charge =  0 Multiplicity = 1

                         Standard orientation:
 ---------------------------------------------------------------------
 Center     Atomic      Atomic             Coordinates (Angstroms)
 Number     Number       Type             X           Y           Z
 ---------------------------------------------------------------------
      1          6           0       -1.174099    0.002534   -0.001000
      2          6           0        0.279147   -0.009343    0.015572
      3          7           0        1.439429    0.002559   -0.006903
      4          1           0       -1.539571    1.030634   -0.058989
      5          1           0       -1.596482   -0.462729    0.883336
      6          1           0       -1.570236   -0.544960   -0.863462
 ---------------------------------------------------------------------

 SCF Done:  E(RB2PLYPD3) =  -132.534899741     A.U. after   11 cycles
 E2(B2PLYPD3) =    -0.1810435966D+00 E(B2PLYPD3) =    -0.13271594333810D+03

 The electronic state is 1-A.
 Alpha  occ. eigenvalues --  -14.84443 -10.67136 -10.66514  -1.03934  -0.89204
 Alpha  occ. eigenvalues --   -0.60235  -0.53859  -0.53482  -0.44897  -0.38965
 Alpha  occ. eigenvalues --   -0.38920
 Alpha virt. eigenvalues --    0.03736   0.07609   0.07739   0.10162   0.11395
 Alpha virt. eigenvalues --    0.11481   0.15440   0.16458   0.16513   0.20093
 Alpha virt. eigenvalues --    0.20127   0.25439   0.32689   0.34544   0.34742

 Mulliken charges:
               1
     1  C   -0.076466
     2  C    0.001261
     3  N   -0.208347
     4  H    0.095842
     5  H    0.093851
     6  H    0.093859
 Sum of Mulliken charges =   0.00000

 Dipole moment (field-independent basis, Debye):
    X=             -4.1435    Y=             -0.0059    Z=              0.0074  Tot=              4.1435
 Quadrupole moment (field-independent basis, Debye-Ang):
   XX=            -20.8729   YY=            -17.7787   ZZ=            -17.8492
   XY=              0.0292   XZ=              0.0236   YZ=             -0.0070

 Normal termination of Gaussian 09 at Thu Aug 27 00:14:03 2020.
