 Gaussian 09, Revision D.01,
 Gaussian 09:  ES64L-G09RevD.01 24-Apr-2013

 --------------------
 #p B2PLYPD3/Def2QZVP
 --------------------

 ------------
 cyanomethane
 ------------
 Symbolic Z-matrix:
 Charge =  0 Multiplicity = 1

                         Standard orientation:
 ---------------------------------------------------------------------
 Center     Atomic      Atomic             Coordinates (Angstroms)
 Number     Number       Type             X           Y           Z
 ---------------------------------------------------------------------
      1          6           0        1.180734    0.001621   -0.020934
      2          6           0       -0.279043   -0.065250    0.006253
      3          7           0       -1.426360    0.024969    0.008820
      4          1           0        1.679653   -0.157135    1.017580
      5          1           0        1.373556    1.093235   -0.308239
      6          1           0        1.521170   -0.729115   -0.682999
 ---------------------------------------------------------------------

 SCF Done:  E(RB2PLYPD3) =  -132.525819566     A.U. after   12 cycles
 E2(B2PLYPD3) =    -0.1806914275D+00 E(B2PLYPD3) =    -0.13270651099333D+03

 The electronic state is 1-A.
 Alpha  occ. eigenvalues --  -14.83983 -10.68002 -10.66066  -1.04222  -0.88764
 Alpha  occ. eigenvalues --   -0.58886  -0.55225  -0.51849  -0.44654  -0.39217
 Alpha  occ. eigenvalues --   -0.38736
 Alpha virt. eigenvalues --    0.03418   0.06976   0.08548   0.10241   0.11185
 Alpha virt. eigenvalues --    0.11918   0.14975   0.15792   0.16503   0.19958
 Alpha virt. eigenvalues --    0.20144   0.25451   0.32114   0.33136   0.34830

 Mulliken charges:
               1
     1  C   -0.106562
     2  C   -0.000346
     3  N   -0.205140
     4  H    0.093851
     5  H    0.108630
     6  H    0.109567
 Sum of Mulliken charges =   0.00000

 Dipole moment (field-independent basis, Debye):
    X=              4.0847    Y=             -0.0260    Z=             -0.0116  Tot=              4.0848
 Quadrupole moment (field-independent basis, Debye-Ang):
   XX=            -21.2729   YY=            -17.5623   ZZ=            -17.8809
   XY=             -0.0148   XZ=              0.2286   YZ=              0.1009

 Normal termination of Gaussian 09 at Wed Aug 26 22:25:54 2020.
