 Gaussian 09, Revision D.01,
 Gaussian 09:  ES64L-G09RevD.01 24-Apr-2013

 --------------------
 #p B2PLYPD3/Def2QZVP
 --------------------

 ------------
 cyanomethane
 ------------
 Symbolic Z-matrix:
 Charge =  0 Multiplicity = 1

                         Standard orientation:
 ---------------------------------------------------------------------
 Center     Atomic      Atomic             Coordinates (Angstroms)
 Number     Number       Type             X           Y           Z
 ---------------------------------------------------------------------
      1          6           0       -1.173485   -0.002759   -0.003035
      2          6           0        0.287158    0.013476    0.004053
      3          7           0        1.434982   -0.004378   -0.001977
      4          1           0       -1.557676   -0.499350    0.899642
      5          1           0       -1.560097   -0.552782   -0.863760
      6          1           0       -1.609140    1.018484   -0.028153
 ---------------------------------------------------------------------

 SCF Done:  E(RB2PLYPD3) =  -132.535344754     A.U. after   11 cycles
 E2(B2PLYPD3) =    -0.1800902100D+00 E(B2PLYPD3) =    -0.13271543496418D+03

 The electronic state is 1-A.
 Alpha  occ. eigenvalues --  -14.84112 -10.67450 -10.66192  -1.04433  -0.88800
 Alpha  occ. eigenvalues --   -0.59958  -0.53478  -0.53213  -0.44858  -0.39283
 Alpha  occ. eigenvalues --   -0.39242
 Alpha virt. eigenvalues --    0.03704   0.07735   0.07877   0.10190   0.11552
 Alpha virt. eigenvalues --    0.11596   0.15420   0.16477   0.16705   0.20038
 Alpha virt. eigenvalues --    0.20053   0.25314   0.32655   0.34462   0.34653

 Mulliken charges:
               1
     1  C   -0.080907
     2  C   -0.000623
     3  N   -0.201564
     4  H    0.094200
     5  H    0.095560
     6  H    0.093334
 Sum of Mulliken charges =   0.00000

 Dipole moment (field-independent basis, Debye):
    X=             -4.1223    Y=             -0.0045    Z=              0.0045  Tot=              4.1223
 Quadrupole moment (field-independent basis, Debye-Ang):
   XX=            -20.8718   YY=            -17.7814   ZZ=            -17.8108
   XY=              0.0092   XZ=              0.0094   YZ=              0.0082

 Normal termination of Gaussian 09 at Thu Aug 27 00:01:14 2020.
