 Gaussian 09, Revision D.01,
 Gaussian 09:  ES64L-G09RevD.01 24-Apr-2013

 --------------------
 #p B2PLYPD3/Def2QZVP
 --------------------

 ------------
 cyanomethane
 ------------
 Symbolic Z-matrix:
 Charge =  0 Multiplicity = 1

                         Standard orientation:
 ---------------------------------------------------------------------
 Center     Atomic      Atomic             Coordinates (Angstroms)
 Number     Number       Type             X           Y           Z
 ---------------------------------------------------------------------
      1          6           0       -1.199189   -0.006831    0.011475
      2          6           0        0.286741    0.033201   -0.014762
      3          7           0        1.433559   -0.012638    0.001033
      4          1           0       -1.431912   -0.300289    0.977864
      5          1           0       -1.537169   -0.789545   -0.708378
      6          1           0       -1.591144    1.020082   -0.256991
 ---------------------------------------------------------------------

 SCF Done:  E(RB2PLYPD3) =  -132.530735328     A.U. after   12 cycles
 E2(B2PLYPD3) =    -0.1800083766D+00 E(B2PLYPD3) =    -0.13271074370460D+03

 The electronic state is 1-A.
 Alpha  occ. eigenvalues --  -14.83870 -10.67604 -10.65992  -1.04232  -0.88836
 Alpha  occ. eigenvalues --   -0.58220  -0.54816  -0.53423  -0.44550  -0.39286
 Alpha  occ. eigenvalues --   -0.39178
 Alpha virt. eigenvalues --    0.03672   0.07875   0.08640   0.10222   0.11316
 Alpha virt. eigenvalues --    0.11470   0.15089   0.15736   0.16245   0.20004
 Alpha virt. eigenvalues --    0.20111   0.24828   0.32093   0.34062   0.34895

 Mulliken charges:
               1
     1  C   -0.104235
     2  C   -0.006221
     3  N   -0.203380
     4  H    0.109201
     5  H    0.101669
     6  H    0.102966
 Sum of Mulliken charges =   0.00000

 Dipole moment (field-independent basis, Debye):
    X=             -4.1053    Y=             -0.0050    Z=              0.0196  Tot=              4.1053
 Quadrupole moment (field-independent basis, Debye-Ang):
   XX=            -21.3079   YY=            -17.5649   ZZ=            -17.7712
   XY=              0.0540   XZ=              0.0460   YZ=             -0.0342

 Normal termination of Gaussian 09 at Wed Aug 26 18:43:31 2020.
