 Gaussian 09, Revision D.01,
 Gaussian 09:  ES64L-G09RevD.01 24-Apr-2013

 --------------------
 #p B2PLYPD3/Def2QZVP
 --------------------

 ------------
 cyanomethane
 ------------
 Symbolic Z-matrix:
 Charge =  0 Multiplicity = 1

                         Standard orientation:
 ---------------------------------------------------------------------
 Center     Atomic      Atomic             Coordinates (Angstroms)
 Number     Number       Type             X           Y           Z
 ---------------------------------------------------------------------
      1          6           0       -1.178741    0.017318   -0.001115
      2          6           0        0.286867   -0.016276   -0.017617
      3          7           0        1.435109    0.005864    0.008469
      4          1           0       -1.560592    0.920674   -0.443482
      5          1           0       -1.552476   -0.083537    1.055754
      6          1           0       -1.581453   -0.884440   -0.559163
 ---------------------------------------------------------------------

 SCF Done:  E(RB2PLYPD3) =  -132.533323732     A.U. after   11 cycles
 E2(B2PLYPD3) =    -0.1803067378D+00 E(B2PLYPD3) =    -0.13271363046951D+03

 The electronic state is 1-A.
 Alpha  occ. eigenvalues --  -14.84086 -10.67865 -10.66177  -1.04356  -0.88529
 Alpha  occ. eigenvalues --   -0.59435  -0.54051  -0.52489  -0.44798  -0.39335
 Alpha  occ. eigenvalues --   -0.39059
 Alpha virt. eigenvalues --    0.03617   0.07541   0.07941   0.10174   0.11412
 Alpha virt. eigenvalues --    0.11694   0.15319   0.16121   0.16731   0.20009
 Alpha virt. eigenvalues --    0.20079   0.25239   0.32423   0.33709   0.34878

 Mulliken charges:
               1
     1  C   -0.091551
     2  C   -0.000827
     3  N   -0.201979
     4  H    0.103235
     5  H    0.096946
     6  H    0.094176
 Sum of Mulliken charges =   0.00000

 Dipole moment (field-independent basis, Debye):
    X=             -4.1109    Y=             -0.0108    Z=             -0.0068  Tot=              4.1110
 Quadrupole moment (field-independent basis, Debye-Ang):
   XX=            -21.0328   YY=            -17.7371   ZZ=            -17.8151
   XY=             -0.0078   XZ=             -0.0477   YZ=             -0.0574

 Normal termination of Gaussian 09 at Thu Aug 27 00:02:43 2020.
