 Gaussian 09, Revision D.01,
 Gaussian 09:  ES64L-G09RevD.01 24-Apr-2013

 --------------------
 #p B2PLYPD3/Def2QZVP
 --------------------

 ------------
 cyanomethane
 ------------
 Symbolic Z-matrix:
 Charge =  0 Multiplicity = 1

                         Standard orientation:
 ---------------------------------------------------------------------
 Center     Atomic      Atomic             Coordinates (Angstroms)
 Number     Number       Type             X           Y           Z
 ---------------------------------------------------------------------
      1          6           0        1.191166    0.001541   -0.024339
      2          6           0       -0.293392    0.025658   -0.060326
      3          7           0       -1.430877   -0.016139    0.042223
      4          1           0        1.668928   -0.107579    0.950550
      5          1           0        1.461056    0.883283   -0.288491
      6          1           0        1.499511   -0.825924   -0.449630
 ---------------------------------------------------------------------

 SCF Done:  E(RB2PLYPD3) =  -132.504375661     A.U. after   12 cycles
 E2(B2PLYPD3) =    -0.1791140841D+00 E(B2PLYPD3) =    -0.13268348974530D+03

 The electronic state is 1-A.
 Alpha  occ. eigenvalues --  -14.83957 -10.65980 -10.64836  -1.04613  -0.90942
 Alpha  occ. eigenvalues --   -0.60523  -0.59265  -0.51466  -0.44774  -0.39956
 Alpha  occ. eigenvalues --   -0.39164
 Alpha virt. eigenvalues --    0.03686   0.08012   0.09938   0.10135   0.10728
 Alpha virt. eigenvalues --    0.11852   0.15485   0.16393   0.17109   0.19836
 Alpha virt. eigenvalues --    0.20219   0.25010   0.32791   0.34249   0.37297

 Mulliken charges:
               1
     1  C   -0.064532
     2  C    0.000557
     3  N   -0.199899
     4  H    0.067730
     5  H    0.100364
     6  H    0.095780
 Sum of Mulliken charges =   0.00000

 Dipole moment (field-independent basis, Debye):
    X=              4.1285    Y=              0.0110    Z=             -0.0136  Tot=              4.1285
 Quadrupole moment (field-independent basis, Debye-Ang):
   XX=            -20.6104   YY=            -17.3203   ZZ=            -18.0757
   XY=             -0.1624   XZ=              0.5011   YZ=              0.0322

 Normal termination of Gaussian 09 at Wed Aug 26 23:07:55 2020.
