 Gaussian 09, Revision D.01,
 Gaussian 09:  ES64L-G09RevD.01 24-Apr-2013

 --------------------
 #p B2PLYPD3/Def2QZVP
 --------------------

 ------------
 cyanomethane
 ------------
 Symbolic Z-matrix:
 Charge =  0 Multiplicity = 1

                         Standard orientation:
 ---------------------------------------------------------------------
 Center     Atomic      Atomic             Coordinates (Angstroms)
 Number     Number       Type             X           Y           Z
 ---------------------------------------------------------------------
      1          6           0        1.169192   -0.013543   -0.004161
      2          6           0       -0.284165    0.021405   -0.004602
      3          7           0       -1.427340   -0.006895    0.003647
      4          1           0        1.527289   -0.661414   -0.772316
      5          1           0        1.556459   -0.352624    0.966439
      6          1           0        1.597468    1.015128   -0.167074
 ---------------------------------------------------------------------

 SCF Done:  E(RB2PLYPD3) =  -132.534943216     A.U. after   11 cycles
 E2(B2PLYPD3) =    -0.1796507765D+00 E(B2PLYPD3) =    -0.13271459399221D+03

 The electronic state is 1-A.
 Alpha  occ. eigenvalues --  -14.83919 -10.67250 -10.65951  -1.04594  -0.89043
 Alpha  occ. eigenvalues --   -0.59857  -0.54300  -0.52893  -0.44798  -0.39411
 Alpha  occ. eigenvalues --   -0.39211
 Alpha virt. eigenvalues --    0.03733   0.07711   0.08155   0.10181   0.11547
 Alpha virt. eigenvalues --    0.11743   0.15474   0.16400   0.16635   0.20009
 Alpha virt. eigenvalues --    0.20059   0.25470   0.32708   0.34214   0.35019

 Mulliken charges:
               1
     1  C   -0.083776
     2  C   -0.002068
     3  N   -0.199917
     4  H    0.099503
     5  H    0.095030
     6  H    0.091229
 Sum of Mulliken charges =   0.00000

 Dipole moment (field-independent basis, Debye):
    X=              4.1053    Y=              0.0024    Z=             -0.0011  Tot=              4.1053
 Quadrupole moment (field-independent basis, Debye-Ang):
   XX=            -20.9401   YY=            -17.7506   ZZ=            -17.7371
   XY=             -0.0052   XZ=              0.0472   YZ=              0.0458

 Normal termination of Gaussian 09 at Wed Aug 26 22:32:38 2020.
