 Gaussian 09, Revision D.01,
 Gaussian 09:  ES64L-G09RevD.01 24-Apr-2013

 --------------------
 #p B2PLYPD3/Def2QZVP
 --------------------

 ------------
 cyanomethane
 ------------
 Symbolic Z-matrix:
 Charge =  0 Multiplicity = 1

                         Standard orientation:
 ---------------------------------------------------------------------
 Center     Atomic      Atomic             Coordinates (Angstroms)
 Number     Number       Type             X           Y           Z
 ---------------------------------------------------------------------
      1          6           0       -1.181378   -0.042308   -0.006519
      2          6           0        0.280890    0.016083    0.069404
      3          7           0        1.442432   -0.003475   -0.040765
      4          1           0       -1.494967   -0.123915    0.949708
      5          1           0       -1.606172   -0.728698   -0.672561
      6          1           0       -1.592957    1.034288   -0.369098
 ---------------------------------------------------------------------

 SCF Done:  E(RB2PLYPD3) =  -132.517590216     A.U. after   12 cycles
 E2(B2PLYPD3) =    -0.1819521635D+00 E(B2PLYPD3) =    -0.13269954237917D+03

 The electronic state is 1-A.
 Alpha  occ. eigenvalues --  -14.84714 -10.67121 -10.66771  -1.03738  -0.89390
 Alpha  occ. eigenvalues --   -0.60354  -0.56161  -0.51194  -0.44970  -0.39133
 Alpha  occ. eigenvalues --   -0.38468
 Alpha virt. eigenvalues --    0.03306   0.06604   0.08530   0.09890   0.11029
 Alpha virt. eigenvalues --    0.11717   0.15379   0.15569   0.17496   0.19998
 Alpha virt. eigenvalues --    0.20319   0.25579   0.31340   0.33549   0.35881

 Mulliken charges:
               1
     1  C   -0.084253
     2  C    0.007075
     3  N   -0.210441
     4  H    0.102396
     5  H    0.103773
     6  H    0.081450
 Sum of Mulliken charges =   0.00000

 Dipole moment (field-independent basis, Debye):
    X=             -4.1137    Y=             -0.0100    Z=              0.0744  Tot=              4.1144
 Quadrupole moment (field-independent basis, Debye-Ang):
   XX=            -20.9098   YY=            -17.9138   ZZ=            -17.7678
   XY=              0.0133   XZ=              0.2566   YZ=              0.1039

 Normal termination of Gaussian 09 at Wed Aug 26 19:14:50 2020.
