 Gaussian 09, Revision D.01,
 Gaussian 09:  ES64L-G09RevD.01 24-Apr-2013

 --------------------
 #p B2PLYPD3/Def2QZVP
 --------------------

 ------------
 cyanomethane
 ------------
 Symbolic Z-matrix:
 Charge =  0 Multiplicity = 1

                         Standard orientation:
 ---------------------------------------------------------------------
 Center     Atomic      Atomic             Coordinates (Angstroms)
 Number     Number       Type             X           Y           Z
 ---------------------------------------------------------------------
      1          6           0       -1.178420   -0.011548   -0.018853
      2          6           0        0.257853   -0.039054    0.015780
      3          7           0        1.435035    0.022285   -0.002590
      4          1           0       -1.561579    0.035087    0.948802
      5          1           0       -1.467024   -0.849052   -0.467623
      6          1           0       -1.493240    0.961585   -0.444612
 ---------------------------------------------------------------------

 SCF Done:  E(RB2PLYPD3) =  -132.521162755     A.U. after   12 cycles
 E2(B2PLYPD3) =    -0.1822506962D+00 E(B2PLYPD3) =    -0.13270341345151D+03

 The electronic state is 1-A.
 Alpha  occ. eigenvalues --  -14.84703 -10.66721 -10.65738  -1.03177  -0.90868
 Alpha  occ. eigenvalues --   -0.60254  -0.57498  -0.53298  -0.44758  -0.38599
 Alpha  occ. eigenvalues --   -0.38148
 Alpha virt. eigenvalues --    0.03749   0.07457   0.08486   0.10120   0.10777
 Alpha virt. eigenvalues --    0.11564   0.15149   0.16020   0.16328   0.20111
 Alpha virt. eigenvalues --    0.20348   0.25723   0.32883   0.33838   0.35928

 Mulliken charges:
               1
     1  C   -0.074492
     2  C    0.001773
     3  N   -0.220507
     4  H    0.089174
     5  H    0.105340
     6  H    0.098711
 Sum of Mulliken charges =   0.00000

 Dipole moment (field-independent basis, Debye):
    X=             -4.1640    Y=             -0.0092    Z=              0.0593  Tot=              4.1644
 Quadrupole moment (field-independent basis, Debye-Ang):
   XX=            -21.0611   YY=            -17.4482   ZZ=            -17.9844
   XY=             -0.1655   XZ=             -0.1879   YZ=              0.0995

 Normal termination of Gaussian 09 at Wed Aug 26 19:21:08 2020.
