 Gaussian 09, Revision D.01,
 Gaussian 09:  ES64L-G09RevD.01 24-Apr-2013

 --------------------
 #p B2PLYPD3/Def2QZVP
 --------------------

 ------------
 cyanomethane
 ------------
 Symbolic Z-matrix:
 Charge =  0 Multiplicity = 1

                         Standard orientation:
 ---------------------------------------------------------------------
 Center     Atomic      Atomic             Coordinates (Angstroms)
 Number     Number       Type             X           Y           Z
 ---------------------------------------------------------------------
      1          6           0        1.186609    0.000970    0.002470
      2          6           0       -0.280827    0.009189    0.000249
      3          7           0       -1.436669   -0.001959    0.002540
      4          1           0        1.572986   -0.210753    0.971014
      5          1           0        1.565061    0.958351   -0.338951
      6          1           0        1.483947   -0.794836   -0.666157
 ---------------------------------------------------------------------

 SCF Done:  E(RB2PLYPD3) =  -132.535064350     A.U. after   12 cycles
 E2(B2PLYPD3) =    -0.1804098741D+00 E(B2PLYPD3) =    -0.13271547422408D+03

 The electronic state is 1-A.
 Alpha  occ. eigenvalues --  -14.84189 -10.66863 -10.66287  -1.04010  -0.89391
 Alpha  occ. eigenvalues --   -0.59550  -0.54392  -0.54125  -0.44728  -0.39117
 Alpha  occ. eigenvalues --   -0.39024
 Alpha virt. eigenvalues --    0.03816   0.08061   0.08225   0.10212   0.11305
 Alpha virt. eigenvalues --    0.11420   0.15302   0.15991   0.16531   0.20081
 Alpha virt. eigenvalues --    0.20123   0.25139   0.32672   0.34609   0.35008

 Mulliken charges:
               1
     1  C   -0.083957
     2  C   -0.002519
     3  N   -0.207418
     4  H    0.097003
     5  H    0.098242
     6  H    0.098650
 Sum of Mulliken charges =   0.00000

 Dipole moment (field-independent basis, Debye):
    X=              4.1375    Y=             -0.0104    Z=              0.0010  Tot=              4.1375
 Quadrupole moment (field-independent basis, Debye-Ang):
   XX=            -21.0299   YY=            -17.6707   ZZ=            -17.7904
   XY=              0.0108   XZ=              0.0778   YZ=             -0.0038

 Normal termination of Gaussian 09 at Wed Aug 26 14:12:45 2020.
