 Gaussian 09, Revision D.01,
 Gaussian 09:  ES64L-G09RevD.01 24-Apr-2013

 --------------------
 #p B2PLYPD3/Def2QZVP
 --------------------

 ------------
 cyanomethane
 ------------
 Symbolic Z-matrix:
 Charge =  0 Multiplicity = 1

                         Standard orientation:
 ---------------------------------------------------------------------
 Center     Atomic      Atomic             Coordinates (Angstroms)
 Number     Number       Type             X           Y           Z
 ---------------------------------------------------------------------
      1          6           0       -1.167923    0.006525    0.005112
      2          6           0        0.274133   -0.010459    0.002378
      3          7           0        1.433513    0.003937   -0.002417
      4          1           0       -1.550283   -0.107565    1.002590
      5          1           0       -1.571185   -0.831087   -0.606623
      6          1           0       -1.550386    0.934689   -0.423989
 ---------------------------------------------------------------------

 SCF Done:  E(RB2PLYPD3) =  -132.534661848     A.U. after   11 cycles
 E2(B2PLYPD3) =    -0.1809531325D+00 E(B2PLYPD3) =    -0.13271561498046D+03

 The electronic state is 1-A.
 Alpha  occ. eigenvalues --  -14.84353 -10.67074 -10.66377  -1.03978  -0.89401
 Alpha  occ. eigenvalues --   -0.60210  -0.54248  -0.53355  -0.44864  -0.38950
 Alpha  occ. eigenvalues --   -0.38819
 Alpha virt. eigenvalues --    0.03744   0.07510   0.07805   0.10137   0.11430
 Alpha virt. eigenvalues --    0.11574   0.15516   0.16305   0.16514   0.20106
 Alpha virt. eigenvalues --    0.20133   0.25625   0.32774   0.34302   0.34868

 Mulliken charges:
               1
     1  C   -0.079439
     2  C    0.000724
     3  N   -0.208353
     4  H    0.097306
     5  H    0.092987
     6  H    0.096774
 Sum of Mulliken charges =   0.00000

 Dipole moment (field-independent basis, Debye):
    X=             -4.1334    Y=             -0.0057    Z=              0.0060  Tot=              4.1334
 Quadrupole moment (field-independent basis, Debye-Ang):
   XX=            -20.9399   YY=            -17.7865   ZZ=            -17.7765
   XY=             -0.0039   XZ=              0.0200   YZ=             -0.0270

 Normal termination of Gaussian 09 at Wed Aug 26 22:07:55 2020.
