 Gaussian 09, Revision D.01,
 Gaussian 09:  ES64L-G09RevD.01 24-Apr-2013

 --------------------
 #p B2PLYPD3/Def2QZVP
 --------------------

 ------------
 cyanomethane
 ------------
 Symbolic Z-matrix:
 Charge =  0 Multiplicity = 1

                         Standard orientation:
 ---------------------------------------------------------------------
 Center     Atomic      Atomic             Coordinates (Angstroms)
 Number     Number       Type             X           Y           Z
 ---------------------------------------------------------------------
      1          6           0       -1.173611   -0.008960    0.002879
      2          6           0        0.276260    0.020174   -0.002410
      3          7           0        1.440001   -0.011251    0.000558
      4          1           0       -1.542939    1.030863   -0.042652
      5          1           0       -1.571025   -0.473550    0.886352
      6          1           0       -1.581935   -0.545835   -0.850424
 ---------------------------------------------------------------------

 SCF Done:  E(RB2PLYPD3) =  -132.534027736     A.U. after   11 cycles
 E2(B2PLYPD3) =    -0.1813473217D+00 E(B2PLYPD3) =    -0.13271537505751D+03

 The electronic state is 1-A.
 Alpha  occ. eigenvalues --  -14.84534 -10.67050 -10.66597  -1.03797  -0.89336
 Alpha  occ. eigenvalues --   -0.60361  -0.53898  -0.53595  -0.44907  -0.38883
 Alpha  occ. eigenvalues --   -0.38794
 Alpha virt. eigenvalues --    0.03749   0.07541   0.07680   0.10115   0.11392
 Alpha virt. eigenvalues --    0.11437   0.15467   0.16151   0.16761   0.20105
 Alpha virt. eigenvalues --    0.20167   0.25512   0.32675   0.34387   0.34907

 Mulliken charges:
               1
     1  C   -0.076108
     2  C    0.002102
     3  N   -0.210213
     4  H    0.093704
     5  H    0.095999
     6  H    0.094515
 Sum of Mulliken charges =   0.00000

 Dipole moment (field-independent basis, Debye):
    X=             -4.1458    Y=              0.0094    Z=              0.0006  Tot=              4.1459
 Quadrupole moment (field-independent basis, Debye-Ang):
   XX=            -20.8869   YY=            -17.7808   ZZ=            -17.8506
   XY=              0.1023   XZ=              0.0017   YZ=             -0.0095

 Normal termination of Gaussian 09 at Wed Aug 26 09:45:48 2020.
