 Gaussian 09, Revision D.01,
 Gaussian 09:  ES64L-G09RevD.01 24-Apr-2013

 --------------------
 #p B2PLYPD3/Def2QZVP
 --------------------

 ------------
 cyanomethane
 ------------
 Symbolic Z-matrix:
 Charge =  0 Multiplicity = 1

                         Standard orientation:
 ---------------------------------------------------------------------
 Center     Atomic      Atomic             Coordinates (Angstroms)
 Number     Number       Type             X           Y           Z
 ---------------------------------------------------------------------
      1          6           0       -1.178167    0.005566    0.003702
      2          6           0        0.272455   -0.029648   -0.013268
      3          7           0        1.427836    0.012987    0.004202
      4          1           0       -1.560087   -0.793744   -0.602553
      5          1           0       -1.508713    0.960967   -0.381056
      6          1           0       -1.491777   -0.113639    1.011594
 ---------------------------------------------------------------------

 SCF Done:  E(RB2PLYPD3) =  -132.534985400     A.U. after   11 cycles
 E2(B2PLYPD3) =    -0.1803769090D+00 E(B2PLYPD3) =    -0.13271536230885D+03

 The electronic state is 1-A.
 Alpha  occ. eigenvalues --  -14.84115 -10.66567 -10.66137  -1.04004  -0.89810
 Alpha  occ. eigenvalues --   -0.59480  -0.54794  -0.54499  -0.44691  -0.38978
 Alpha  occ. eigenvalues --   -0.38950
 Alpha virt. eigenvalues --    0.03833   0.08058   0.08283   0.10174   0.11362
 Alpha virt. eigenvalues --    0.11454   0.15437   0.15990   0.16250   0.20093
 Alpha virt. eigenvalues --    0.20143   0.25491   0.32910   0.34730   0.34930

 Mulliken charges:
               1
     1  C   -0.085640
     2  C   -0.002905
     3  N   -0.208689
     4  H    0.097535
     5  H    0.099640
     6  H    0.100058
 Sum of Mulliken charges =   0.00000

 Dipole moment (field-independent basis, Debye):
    X=             -4.1207    Y=             -0.0168    Z=              0.0015  Tot=              4.1207
 Quadrupole moment (field-independent basis, Debye-Ang):
   XX=            -21.1156   YY=            -17.6677   ZZ=            -17.6920
   XY=             -0.0382   XZ=              0.0022   YZ=             -0.0042

 Normal termination of Gaussian 09 at Wed Aug 26 13:00:42 2020.
