 Gaussian 09, Revision D.01,
 Gaussian 09:  ES64L-G09RevD.01 24-Apr-2013

 --------------------
 #p B2PLYPD3/Def2QZVP
 --------------------

 ------------
 cyanomethane
 ------------
 Symbolic Z-matrix:
 Charge =  0 Multiplicity = 1

                         Standard orientation:
 ---------------------------------------------------------------------
 Center     Atomic      Atomic             Coordinates (Angstroms)
 Number     Number       Type             X           Y           Z
 ---------------------------------------------------------------------
      1          6           0       -1.164924    0.005572   -0.010751
      2          6           0        0.271128    0.009087   -0.007192
      3          7           0        1.428925   -0.008326    0.002431
      4          1           0       -1.513388    1.034905   -0.125166
      5          1           0       -1.528927   -0.392704    0.986594
      6          1           0       -1.597387   -0.671871   -0.770785
 ---------------------------------------------------------------------

 SCF Done:  E(RB2PLYPD3) =  -132.532790871     A.U. after   12 cycles
 E2(B2PLYPD3) =    -0.1810771498D+00 E(B2PLYPD3) =    -0.13271386802038D+03

 The electronic state is 1-A.
 Alpha  occ. eigenvalues --  -14.84245 -10.67565 -10.66257  -1.04019  -0.89191
 Alpha  occ. eigenvalues --   -0.59801  -0.54455  -0.52739  -0.44810  -0.38942
 Alpha  occ. eigenvalues --   -0.38651
 Alpha virt. eigenvalues --    0.03643   0.07243   0.07740   0.10119   0.11409
 Alpha virt. eigenvalues --    0.11783   0.15460   0.15957   0.16652   0.20066
 Alpha virt. eigenvalues --    0.20184   0.25699   0.32711   0.33615   0.34825

 Mulliken charges:
               1
     1  C   -0.091028
     2  C    0.001148
     3  N   -0.207878
     4  H    0.102971
     5  H    0.095078
     6  H    0.099710
 Sum of Mulliken charges =   0.00000

 Dipole moment (field-independent basis, Debye):
    X=             -4.1168    Y=              0.0019    Z=              0.0111  Tot=              4.1168
 Quadrupole moment (field-independent basis, Debye-Ang):
   XX=            -21.0910   YY=            -17.6456   ZZ=            -17.8764
   XY=              0.1261   XZ=             -0.0101   YZ=              0.0204

 Normal termination of Gaussian 09 at Wed Aug 26 11:22:33 2020.
