 Gaussian 09, Revision D.01,
 Gaussian 09:  ES64L-G09RevD.01 24-Apr-2013

 --------------------
 #p B2PLYPD3/Def2QZVP
 --------------------

 ------------
 cyanomethane
 ------------
 Symbolic Z-matrix:
 Charge =  0 Multiplicity = 1

                         Standard orientation:
 ---------------------------------------------------------------------
 Center     Atomic      Atomic             Coordinates (Angstroms)
 Number     Number       Type             X           Y           Z
 ---------------------------------------------------------------------
      1          6           0        1.200577   -0.009796    0.005769
      2          6           0       -0.274130    0.046099    0.021034
      3          7           0       -1.444294   -0.028468   -0.021245
      4          1           0        1.478904    1.050157   -0.239284
      5          1           0        1.661756   -0.744424   -0.750296
      6          1           0        1.410718   -0.324270    0.977473
 ---------------------------------------------------------------------

 SCF Done:  E(RB2PLYPD3) =  -132.522492333     A.U. after   13 cycles
 E2(B2PLYPD3) =    -0.1826294227D+00 E(B2PLYPD3) =    -0.13270512175607D+03

 The electronic state is 1-A.
 Alpha  occ. eigenvalues --  -14.84618 -10.67909 -10.66756  -1.03283  -0.88988
 Alpha  occ. eigenvalues --   -0.58473  -0.55403  -0.52486  -0.44661  -0.38608
 Alpha  occ. eigenvalues --   -0.38433
 Alpha virt. eigenvalues --    0.03383   0.06830   0.08519   0.10025   0.10987
 Alpha virt. eigenvalues --    0.11328   0.14925   0.15141   0.16731   0.20163
 Alpha virt. eigenvalues --    0.20237   0.25116   0.31975   0.33485   0.34659

 Mulliken charges:
               1
     1  C   -0.107585
     2  C    0.001462
     3  N   -0.215401
     4  H    0.107164
     5  H    0.101452
     6  H    0.112908
 Sum of Mulliken charges =   0.00000

 Dipole moment (field-independent basis, Debye):
    X=              4.1191    Y=              0.0250    Z=              0.0432  Tot=              4.1194
 Quadrupole moment (field-independent basis, Debye-Ang):
   XX=            -21.3776   YY=            -17.6786   ZZ=            -17.8439
   XY=             -0.2749   XZ=             -0.2493   YZ=             -0.0836

 Normal termination of Gaussian 09 at Wed Aug 26 19:04:41 2020.
