 Gaussian 09, Revision D.01,
 Gaussian 09:  ES64L-G09RevD.01 24-Apr-2013

 --------------------
 #p B2PLYPD3/Def2QZVP
 --------------------

 ------------
 cyanomethane
 ------------
 Symbolic Z-matrix:
 Charge =  0 Multiplicity = 1

                         Standard orientation:
 ---------------------------------------------------------------------
 Center     Atomic      Atomic             Coordinates (Angstroms)
 Number     Number       Type             X           Y           Z
 ---------------------------------------------------------------------
      1          6           0       -1.177334   -0.006406   -0.003127
      2          6           0        0.288782    0.014193    0.014253
      3          7           0        1.438985    0.000722   -0.007406
      4          1           0       -1.546692   -0.343586    0.956640
      5          1           0       -1.515212   -0.719744   -0.756757
      6          1           0       -1.679683    1.011560   -0.214797
 ---------------------------------------------------------------------

 SCF Done:  E(RB2PLYPD3) =  -132.532294263     A.U. after   12 cycles
 E2(B2PLYPD3) =    -0.1804666731D+00 E(B2PLYPD3) =    -0.13271276093592D+03

 The electronic state is 1-A.
 Alpha  occ. eigenvalues --  -14.84205 -10.67770 -10.66320  -1.04335  -0.88591
 Alpha  occ. eigenvalues --   -0.59733  -0.53747  -0.52542  -0.44870  -0.39237
 Alpha  occ. eigenvalues --   -0.39179
 Alpha virt. eigenvalues --    0.03604   0.07258   0.08087   0.10209   0.11513
 Alpha virt. eigenvalues --    0.11578   0.15331   0.16136   0.17012   0.20043
 Alpha virt. eigenvalues --    0.20077   0.25216   0.32207   0.34315   0.34597

 Mulliken charges:
               1
     1  C   -0.085587
     2  C    0.000553
     3  N   -0.202547
     4  H    0.096473
     5  H    0.098547
     6  H    0.092560
 Sum of Mulliken charges =   0.00000

 Dipole moment (field-independent basis, Debye):
    X=             -4.1248    Y=             -0.0340    Z=              0.0240  Tot=              4.1250
 Quadrupole moment (field-independent basis, Debye-Ang):
   XX=            -20.8911   YY=            -17.7816   ZZ=            -17.8634
   XY=             -0.0581   XZ=              0.0137   YZ=              0.0208

 Normal termination of Gaussian 09 at Wed Aug 26 14:27:29 2020.
