 Gaussian 09, Revision D.01,
 Gaussian 09:  ES64L-G09RevD.01 24-Apr-2013

 --------------------
 #p B2PLYPD3/Def2QZVP
 --------------------

 ------------
 cyanomethane
 ------------
 Symbolic Z-matrix:
 Charge =  0 Multiplicity = 1

                         Standard orientation:
 ---------------------------------------------------------------------
 Center     Atomic      Atomic             Coordinates (Angstroms)
 Number     Number       Type             X           Y           Z
 ---------------------------------------------------------------------
      1          6           0        1.172755   -0.013260   -0.000559
      2          6           0       -0.272772   -0.001960   -0.030805
      3          7           0       -1.444668    0.000349    0.011016
      4          1           0        1.561163    1.010822   -0.220371
      5          1           0        1.644924   -0.689754   -0.654069
      6          1           0        1.506690   -0.232189    0.985506
 ---------------------------------------------------------------------

 SCF Done:  E(RB2PLYPD3) =  -132.530976772     A.U. after   12 cycles
 E2(B2PLYPD3) =    -0.1820143817D+00 E(B2PLYPD3) =    -0.13271299115349D+03

 The electronic state is 1-A.
 Alpha  occ. eigenvalues --  -14.84798 -10.66896 -10.66689  -1.03503  -0.89691
 Alpha  occ. eigenvalues --   -0.60978  -0.54488  -0.53273  -0.44981  -0.38785
 Alpha  occ. eigenvalues --   -0.38534
 Alpha virt. eigenvalues --    0.03756   0.07358   0.07629   0.10132   0.11214
 Alpha virt. eigenvalues --    0.11499   0.15496   0.16109   0.16953   0.20157
 Alpha virt. eigenvalues --    0.20206   0.25582   0.32564   0.34234   0.35334

 Mulliken charges:
               1
     1  C   -0.067938
     2  C    0.005457
     3  N   -0.214296
     4  H    0.089051
     5  H    0.094181
     6  H    0.093545
 Sum of Mulliken charges =   0.00000

 Dipole moment (field-independent basis, Debye):
    X=              4.1694    Y=             -0.0019    Z=              0.0134  Tot=              4.1695
 Quadrupole moment (field-independent basis, Debye-Ang):
   XX=            -20.7709   YY=            -17.8246   ZZ=            -17.8919
   XY=             -0.0322   XZ=              0.0352   YZ=              0.0355

 Normal termination of Gaussian 09 at Wed Aug 26 14:14:47 2020.
