 Gaussian 09, Revision D.01,
 Gaussian 09:  ES64L-G09RevD.01 24-Apr-2013

 --------------------
 #p B2PLYPD3/Def2QZVP
 --------------------

 ------------
 cyanomethane
 ------------
 Symbolic Z-matrix:
 Charge =  0 Multiplicity = 1

                         Standard orientation:
 ---------------------------------------------------------------------
 Center     Atomic      Atomic             Coordinates (Angstroms)
 Number     Number       Type             X           Y           Z
 ---------------------------------------------------------------------
      1          6           0        1.178192   -0.008316    0.004357
      2          6           0       -0.270144    0.001090   -0.033622
      3          7           0       -1.445122    0.001806    0.012872
      4          1           0        1.597504    0.952917   -0.358762
      5          1           0        1.575369   -0.806357   -0.570023
      6          1           0        1.494691   -0.115843    1.014277
 ---------------------------------------------------------------------

 SCF Done:  E(RB2PLYPD3) =  -132.531789487     A.U. after   12 cycles
 E2(B2PLYPD3) =    -0.1822385076D+00 E(B2PLYPD3) =    -0.13271402799444D+03

 The electronic state is 1-A.
 Alpha  occ. eigenvalues --  -14.84824 -10.66908 -10.66755  -1.03326  -0.89685
 Alpha  occ. eigenvalues --   -0.60366  -0.54741  -0.53592  -0.44914  -0.38644
 Alpha  occ. eigenvalues --   -0.38492
 Alpha virt. eigenvalues --    0.03767   0.07325   0.07726   0.10137   0.11134
 Alpha virt. eigenvalues --    0.11393   0.15449   0.16172   0.16455   0.20151
 Alpha virt. eigenvalues --    0.20217   0.25535   0.32502   0.34506   0.35103

 Mulliken charges:
               1
     1  C   -0.073984
     2  C    0.002910
     3  N   -0.215921
     4  H    0.092559
     5  H    0.097143
     6  H    0.097293
 Sum of Mulliken charges =   0.00000

 Dipole moment (field-independent basis, Debye):
    X=              4.1655    Y=             -0.0079    Z=              0.0071  Tot=              4.1655
 Quadrupole moment (field-independent basis, Debye-Ang):
   XX=            -20.9115   YY=            -17.7875   ZZ=            -17.8619
   XY=              0.0254   XZ=              0.0462   YZ=              0.0352

 Normal termination of Gaussian 09 at Wed Aug 26 15:05:07 2020.
