 Gaussian 09, Revision D.01,
 Gaussian 09:  ES64L-G09RevD.01 24-Apr-2013

 --------------------
 #p B2PLYPD3/Def2QZVP
 --------------------

 ------------
 cyanomethane
 ------------
 Symbolic Z-matrix:
 Charge =  0 Multiplicity = 1

                         Standard orientation:
 ---------------------------------------------------------------------
 Center     Atomic      Atomic             Coordinates (Angstroms)
 Number     Number       Type             X           Y           Z
 ---------------------------------------------------------------------
      1          6           0       -1.179416   -0.011137    0.010219
      2          6           0        0.289617    0.034961   -0.014111
      3          7           0        1.422950   -0.014543    0.003515
      4          1           0       -1.488969   -0.356456    0.915631
      5          1           0       -1.547261   -0.664396   -0.747315
      6          1           0       -1.585628    0.979710   -0.169570
 ---------------------------------------------------------------------

 SCF Done:  E(RB2PLYPD3) =  -132.532972615     A.U. after   11 cycles
 E2(B2PLYPD3) =    -0.1783748328D+00 E(B2PLYPD3) =    -0.13271134744767D+03

 The electronic state is 1-A.
 Alpha  occ. eigenvalues --  -14.83601 -10.66121 -10.65634  -1.04889  -0.89742
 Alpha  occ. eigenvalues --   -0.59740  -0.55152  -0.53945  -0.44681  -0.39737
 Alpha  occ. eigenvalues --   -0.39613
 Alpha virt. eigenvalues --    0.03924   0.08503   0.08894   0.10242   0.11516
 Alpha virt. eigenvalues --    0.11602   0.15480   0.16369   0.16623   0.19961
 Alpha virt. eigenvalues --    0.20028   0.25238   0.32962   0.34907   0.35612

 Mulliken charges:
               1
     1  C   -0.075803
     2  C   -0.006686
     3  N   -0.196137
     4  H    0.096754
     5  H    0.091542
     6  H    0.090330
 Sum of Mulliken charges =   0.00000

 Dipole moment (field-independent basis, Debye):
    X=             -4.1040    Y=              0.0079    Z=              0.0018  Tot=              4.1041
 Quadrupole moment (field-independent basis, Debye-Ang):
   XX=            -20.8833   YY=            -17.6250   ZZ=            -17.6791
   XY=              0.0739   XZ=              0.0129   YZ=             -0.0216

 Normal termination of Gaussian 09 at Wed Aug 26 10:58:55 2020.
