 Gaussian 09, Revision D.01,
 Gaussian 09:  ES64L-G09RevD.01 24-Apr-2013

 --------------------
 #p B2PLYPD3/Def2QZVP
 --------------------

 ------------
 cyanomethane
 ------------
 Symbolic Z-matrix:
 Charge =  0 Multiplicity = 1

                         Standard orientation:
 ---------------------------------------------------------------------
 Center     Atomic      Atomic             Coordinates (Angstroms)
 Number     Number       Type             X           Y           Z
 ---------------------------------------------------------------------
      1          6           0       -1.167226    0.009763   -0.004697
      2          6           0        0.284423    0.015636    0.031435
      3          7           0        1.428788   -0.009672   -0.022880
      4          1           0       -1.647249   -0.626252   -0.811237
      5          1           0       -1.573882    0.993332   -0.100960
      6          1           0       -1.483570   -0.451763    0.911929
 ---------------------------------------------------------------------

 SCF Done:  E(RB2PLYPD3) =  -132.532134761     A.U. after   12 cycles
 E2(B2PLYPD3) =    -0.1799338027D+00 E(B2PLYPD3) =    -0.13271206856345D+03

 The electronic state is 1-A.
 Alpha  occ. eigenvalues --  -14.84042 -10.67060 -10.66075  -1.04546  -0.89217
 Alpha  occ. eigenvalues --   -0.60201  -0.54733  -0.52381  -0.44865  -0.39423
 Alpha  occ. eigenvalues --   -0.39098
 Alpha virt. eigenvalues --    0.03644   0.07369   0.08461   0.10137   0.11419
 Alpha virt. eigenvalues --    0.11806   0.15534   0.15914   0.17384   0.19986
 Alpha virt. eigenvalues --    0.20172   0.25570   0.32865   0.34070   0.35168

 Mulliken charges:
               1
     1  C   -0.079213
     2  C    0.000175
     3  N   -0.200960
     4  H    0.088666
     5  H    0.097147
     6  H    0.094186
 Sum of Mulliken charges =   0.00000

 Dipole moment (field-independent basis, Debye):
    X=             -4.1117    Y=              0.0008    Z=              0.0564  Tot=              4.1121
 Quadrupole moment (field-independent basis, Debye-Ang):
   XX=            -20.8274   YY=            -17.6863   ZZ=            -17.8719
   XY=              0.0980   XZ=              0.2005   YZ=             -0.0653

 Normal termination of Gaussian 09 at Wed Aug 26 14:22:19 2020.
