 Gaussian 09, Revision D.01,
 Gaussian 09:  ES64L-G09RevD.01 24-Apr-2013

 --------------------
 #p B2PLYPD3/Def2QZVP
 --------------------

 ------------
 cyanomethane
 ------------
 Symbolic Z-matrix:
 Charge =  0 Multiplicity = 1

                         Standard orientation:
 ---------------------------------------------------------------------
 Center     Atomic      Atomic             Coordinates (Angstroms)
 Number     Number       Type             X           Y           Z
 ---------------------------------------------------------------------
      1          6           0        1.175190    0.003181   -0.011576
      2          6           0       -0.279116    0.003953   -0.018692
      3          7           0       -1.426490   -0.003865    0.013877
      4          1           0        1.576970   -0.060554    1.021198
      5          1           0        1.500911    0.911273   -0.421191
      6          1           0        1.531106   -0.866469   -0.515538
 ---------------------------------------------------------------------

 SCF Done:  E(RB2PLYPD3) =  -132.533900907     A.U. after   11 cycles
 E2(B2PLYPD3) =    -0.1797310855D+00 E(B2PLYPD3) =    -0.13271363199241D+03

 The electronic state is 1-A.
 Alpha  occ. eigenvalues --  -14.83944 -10.66613 -10.65966  -1.04365  -0.89653
 Alpha  occ. eigenvalues --   -0.59703  -0.55682  -0.53041  -0.44721  -0.39361
 Alpha  occ. eigenvalues --   -0.39046
 Alpha virt. eigenvalues --    0.03805   0.07842   0.08629   0.10195   0.11291
 Alpha virt. eigenvalues --    0.11727   0.15452   0.16254   0.16445   0.20000
 Alpha virt. eigenvalues --    0.20141   0.25403   0.32930   0.34200   0.35522

 Mulliken charges:
               1
     1  C   -0.081153
     2  C   -0.003780
     3  N   -0.203555
     4  H    0.089555
     5  H    0.100570
     6  H    0.098363
 Sum of Mulliken charges =   0.00000

 Dipole moment (field-independent basis, Debye):
    X=              4.1160    Y=              0.0029    Z=             -0.0060  Tot=              4.1160
 Quadrupole moment (field-independent basis, Debye-Ang):
   XX=            -21.0022   YY=            -17.5527   ZZ=            -17.8360
   XY=             -0.0549   XZ=              0.1691   YZ=             -0.0082

 Normal termination of Gaussian 09 at Wed Aug 26 09:59:27 2020.
