 Gaussian 09, Revision D.01,
 Gaussian 09:  ES64L-G09RevD.01 24-Apr-2013

 --------------------
 #p B2PLYPD3/Def2QZVP
 --------------------

 ------------
 cyanomethane
 ------------
 Symbolic Z-matrix:
 Charge =  0 Multiplicity = 1

                         Standard orientation:
 ---------------------------------------------------------------------
 Center     Atomic      Atomic             Coordinates (Angstroms)
 Number     Number       Type             X           Y           Z
 ---------------------------------------------------------------------
      1          6           0       -1.179187    0.004047   -0.000667
      2          6           0        0.270625    0.014711    0.000386
      3          7           0        1.432422   -0.010076    0.000756
      4          1           0       -1.495911    0.978753   -0.253014
      5          1           0       -1.544154   -0.290219    0.976271
      6          1           0       -1.535513   -0.730547   -0.726861
 ---------------------------------------------------------------------

 SCF Done:  E(RB2PLYPD3) =  -132.534084316     A.U. after   11 cycles
 E2(B2PLYPD3) =    -0.1809421503D+00 E(B2PLYPD3) =    -0.13271502646611D+03

 The electronic state is 1-A.
 Alpha  occ. eigenvalues --  -14.84292 -10.66728 -10.66330  -1.03782  -0.89755
 Alpha  occ. eigenvalues --   -0.59553  -0.55182  -0.53883  -0.44724  -0.38877
 Alpha  occ. eigenvalues --   -0.38754
 Alpha virt. eigenvalues --    0.03805   0.07736   0.08256   0.10158   0.11243
 Alpha virt. eigenvalues --    0.11474   0.15412   0.15972   0.16251   0.20114
 Alpha virt. eigenvalues --    0.20181   0.25449   0.32802   0.34434   0.35021

 Mulliken charges:
               1
     1  C   -0.085755
     2  C   -0.001831
     3  N   -0.211170
     4  H    0.102361
     5  H    0.098222
     6  H    0.098174
 Sum of Mulliken charges =   0.00000

 Dipole moment (field-independent basis, Debye):
    X=             -4.1326    Y=              0.0093    Z=              0.0010  Tot=              4.1326
 Quadrupole moment (field-independent basis, Debye-Ang):
   XX=            -21.1186   YY=            -17.6589   ZZ=            -17.7610
   XY=              0.1018   XZ=             -0.0251   YZ=             -0.0230

 Normal termination of Gaussian 09 at Thu Aug 27 00:05:29 2020.
