 Gaussian 09, Revision D.01,
 Gaussian 09:  ES64L-G09RevD.01 24-Apr-2013

 --------------------
 #p B2PLYPD3/Def2QZVP
 --------------------

 ------------
 cyanomethane
 ------------
 Symbolic Z-matrix:
 Charge =  0 Multiplicity = 1

                         Standard orientation:
 ---------------------------------------------------------------------
 Center     Atomic      Atomic             Coordinates (Angstroms)
 Number     Number       Type             X           Y           Z
 ---------------------------------------------------------------------
      1          6           0       -1.161776   -0.001038   -0.006370
      2          6           0        0.288842   -0.020259   -0.020581
      3          7           0        1.426033    0.010662    0.008484
      4          1           0       -1.584117    1.068870   -0.109869
      5          1           0       -1.542046   -0.382800    0.993738
      6          1           0       -1.618466   -0.632923   -0.781555
 ---------------------------------------------------------------------

 SCF Done:  E(RB2PLYPD3) =  -132.531337580     A.U. after   12 cycles
 E2(B2PLYPD3) =    -0.1797020766D+00 E(B2PLYPD3) =    -0.13271103965618D+03

 The electronic state is 1-A.
 Alpha  occ. eigenvalues --  -14.83846 -10.68163 -10.65886  -1.04882  -0.88319
 Alpha  occ. eigenvalues --   -0.59807  -0.53187  -0.52214  -0.44859  -0.39493
 Alpha  occ. eigenvalues --   -0.39255
 Alpha virt. eigenvalues --    0.03510   0.07281   0.07804   0.10171   0.11685
 Alpha virt. eigenvalues --    0.11979   0.15463   0.16411   0.16932   0.19954
 Alpha virt. eigenvalues --    0.20046   0.25523   0.32612   0.33567   0.34451

 Mulliken charges:
               1
     1  C   -0.091494
     2  C    0.000061
     3  N   -0.195224
     4  H    0.094637
     5  H    0.094119
     6  H    0.097901
 Sum of Mulliken charges =   0.00000

 Dipole moment (field-independent basis, Debye):
    X=             -4.0856    Y=             -0.0280    Z=             -0.0009  Tot=              4.0857
 Quadrupole moment (field-independent basis, Debye-Ang):
   XX=            -20.9259   YY=            -17.7552   ZZ=            -17.8326
   XY=             -0.0361   XZ=             -0.0317   YZ=              0.0371

 Normal termination of Gaussian 09 at Wed Aug 26 12:14:08 2020.
