 Gaussian 09, Revision D.01,
 Gaussian 09:  ES64L-G09RevD.01 24-Apr-2013

 --------------------
 #p B2PLYPD3/Def2QZVP
 --------------------

 ------------
 cyanomethane
 ------------
 Symbolic Z-matrix:
 Charge =  0 Multiplicity = 1

                         Standard orientation:
 ---------------------------------------------------------------------
 Center     Atomic      Atomic             Coordinates (Angstroms)
 Number     Number       Type             X           Y           Z
 ---------------------------------------------------------------------
      1          6           0       -1.167811   -0.023938    0.004836
      2          6           0        0.280449    0.023708    0.001912
      3          7           0        1.423743   -0.009933   -0.002285
      4          1           0       -1.537018   -0.062517    0.982235
      5          1           0       -1.553897   -0.804056   -0.577340
      6          1           0       -1.551116    0.937483   -0.429388
 ---------------------------------------------------------------------

 SCF Done:  E(RB2PLYPD3) =  -132.533179449     A.U. after   11 cycles
 E2(B2PLYPD3) =    -0.1793756526D+00 E(B2PLYPD3) =    -0.13271255510151D+03

 The electronic state is 1-A.
 Alpha  occ. eigenvalues --  -14.83882 -10.66419 -10.65890  -1.04581  -0.89748
 Alpha  occ. eigenvalues --   -0.60305  -0.55315  -0.53103  -0.44779  -0.39507
 Alpha  occ. eigenvalues --   -0.39127
 Alpha virt. eigenvalues --    0.03849   0.07987   0.08468   0.10153   0.11418
 Alpha virt. eigenvalues --    0.11794   0.15580   0.16025   0.17031   0.20032
 Alpha virt. eigenvalues --    0.20082   0.25587   0.32820   0.34260   0.35738

 Mulliken charges:
               1
     1  C   -0.075212
     2  C   -0.001742
     3  N   -0.201380
     4  H    0.095122
     5  H    0.097010
     6  H    0.086202
 Sum of Mulliken charges =   0.00000

 Dipole moment (field-independent basis, Debye):
    X=             -4.1110    Y=              0.0212    Z=              0.0099  Tot=              4.1110
 Quadrupole moment (field-independent basis, Debye-Ang):
   XX=            -20.8862   YY=            -17.7196   ZZ=            -17.6910
   XY=              0.0364   XZ=              0.0121   YZ=              0.0661

 Normal termination of Gaussian 09 at Wed Aug 26 14:02:01 2020.
