 Gaussian 09, Revision D.01,
 Gaussian 09:  ES64L-G09RevD.01 24-Apr-2013

 --------------------
 #p B2PLYPD3/Def2QZVP
 --------------------

 ------------
 cyanomethane
 ------------
 Symbolic Z-matrix:
 Charge =  0 Multiplicity = 1

                         Standard orientation:
 ---------------------------------------------------------------------
 Center     Atomic      Atomic             Coordinates (Angstroms)
 Number     Number       Type             X           Y           Z
 ---------------------------------------------------------------------
      1          6           0       -1.177064   -0.007053   -0.002030
      2          6           0        0.277473    0.004877    0.016557
      3          7           0        1.437230   -0.002319   -0.009811
      4          1           0       -1.536828   -0.134294    0.982268
      5          1           0       -1.571613   -0.784140   -0.623387
      6          1           0       -1.554626    0.947724   -0.377366
 ---------------------------------------------------------------------

 SCF Done:  E(RB2PLYPD3) =  -132.534454949     A.U. after   11 cycles
 E2(B2PLYPD3) =    -0.1807558106D+00 E(B2PLYPD3) =    -0.13271521075984D+03

 The electronic state is 1-A.
 Alpha  occ. eigenvalues --  -14.84375 -10.66603 -10.66432  -1.03923  -0.89640
 Alpha  occ. eigenvalues --   -0.60214  -0.54588  -0.53805  -0.44844  -0.39025
 Alpha  occ. eigenvalues --   -0.38922
 Alpha virt. eigenvalues --    0.03818   0.07755   0.08156   0.10163   0.11318
 Alpha virt. eigenvalues --    0.11448   0.15475   0.16129   0.16692   0.20101
 Alpha virt. eigenvalues --    0.20142   0.25414   0.32809   0.34629   0.35156

 Mulliken charges:
               1
     1  C   -0.073714
     2  C   -0.000052
     3  N   -0.209022
     4  H    0.095041
     5  H    0.095222
     6  H    0.092526
 Sum of Mulliken charges =   0.00000

 Dipole moment (field-independent basis, Debye):
    X=             -4.1455    Y=              0.0045    Z=              0.0205  Tot=              4.1455
 Quadrupole moment (field-independent basis, Debye-Ang):
   XX=            -20.8870   YY=            -17.7712   ZZ=            -17.7683
   XY=              0.0160   XZ=              0.0609   YZ=              0.0132

 Normal termination of Gaussian 09 at Wed Aug 26 09:56:05 2020.
