 Gaussian 09, Revision D.01,
 Gaussian 09:  ES64L-G09RevD.01 24-Apr-2013

 --------------------
 #p B2PLYPD3/Def2QZVP
 --------------------

 ------------
 cyanomethane
 ------------
 Symbolic Z-matrix:
 Charge =  0 Multiplicity = 1

                         Standard orientation:
 ---------------------------------------------------------------------
 Center     Atomic      Atomic             Coordinates (Angstroms)
 Number     Number       Type             X           Y           Z
 ---------------------------------------------------------------------
      1          6           0       -1.173844    0.010163    0.004969
      2          6           0        0.291033    0.015632    0.016922
      3          7           0        1.437959   -0.013896   -0.010737
      4          1           0       -1.641196   -0.599598   -0.789895
      5          1           0       -1.528392    0.946044   -0.133462
      6          1           0       -1.599263   -0.403950    0.867168
 ---------------------------------------------------------------------

 SCF Done:  E(RB2PLYPD3) =  -132.528598150     A.U. after   11 cycles
 E2(B2PLYPD3) =    -0.1796328335D+00 E(B2PLYPD3) =    -0.13270823098357D+03

 The electronic state is 1-A.
 Alpha  occ. eigenvalues --  -14.84204 -10.66298 -10.65995  -1.04512  -0.89851
 Alpha  occ. eigenvalues --   -0.61099  -0.55470  -0.52540  -0.44957  -0.39615
 Alpha  occ. eigenvalues --   -0.39281
 Alpha virt. eigenvalues --    0.03804   0.07774   0.08755   0.10205   0.11224
 Alpha virt. eigenvalues --    0.11715   0.15535   0.16705   0.17141   0.19956
 Alpha virt. eigenvalues --    0.20169   0.25240   0.32869   0.34630   0.35930

 Mulliken charges:
               1
     1  C   -0.054969
     2  C    0.002642
     3  N   -0.202175
     4  H    0.078589
     5  H    0.090753
     6  H    0.085160
 Sum of Mulliken charges =   0.00000

 Dipole moment (field-independent basis, Debye):
    X=             -4.1494    Y=              0.0204    Z=              0.0199  Tot=              4.1495
 Quadrupole moment (field-independent basis, Debye-Ang):
   XX=            -20.5141   YY=            -17.7396   ZZ=            -17.8913
   XY=              0.1630   XZ=              0.0792   YZ=             -0.0730

 Normal termination of Gaussian 09 at Wed Aug 26 10:59:53 2020.
