 Gaussian 09, Revision D.01,
 Gaussian 09:  ES64L-G09RevD.01 24-Apr-2013

 --------------------
 #p B2PLYPD3/Def2QZVP
 --------------------

 ------------
 cyanomethane
 ------------
 Symbolic Z-matrix:
 Charge =  0 Multiplicity = 1

                         Standard orientation:
 ---------------------------------------------------------------------
 Center     Atomic      Atomic             Coordinates (Angstroms)
 Number     Number       Type             X           Y           Z
 ---------------------------------------------------------------------
      1          6           0        1.176380    0.002629   -0.001409
      2          6           0       -0.274660    0.011867    0.008214
      3          7           0       -1.432326   -0.002841   -0.002183
      4          1           0        1.545547   -0.399575    0.927037
      5          1           0        1.583746    0.986777   -0.154447
      6          1           0        1.486674   -0.654294   -0.798141
 ---------------------------------------------------------------------

 SCF Done:  E(RB2PLYPD3) =  -132.535280309     A.U. after   11 cycles
 E2(B2PLYPD3) =    -0.1805738872D+00 E(B2PLYPD3) =    -0.13271585419649D+03

 The electronic state is 1-A.
 Alpha  occ. eigenvalues --  -14.84228 -10.66704 -10.66277  -1.03978  -0.89654
 Alpha  occ. eigenvalues --   -0.59866  -0.54472  -0.54159  -0.44766  -0.39013
 Alpha  occ. eigenvalues --   -0.38901
 Alpha virt. eigenvalues --    0.03827   0.07954   0.08069   0.10184   0.11351
 Alpha virt. eigenvalues --    0.11499   0.15443   0.16027   0.16531   0.20100
 Alpha virt. eigenvalues --    0.20142   0.25450   0.32837   0.34582   0.35026

 Mulliken charges:
               1
     1  C   -0.081276
     2  C   -0.001385
     3  N   -0.208640
     4  H    0.096052
     5  H    0.097459
     6  H    0.097792
 Sum of Mulliken charges =   0.00000

 Dipole moment (field-independent basis, Debye):
    X=              4.1350    Y=             -0.0103    Z=              0.0015  Tot=              4.1350
 Quadrupole moment (field-independent basis, Debye-Ang):
   XX=            -21.0068   YY=            -17.6936   ZZ=            -17.7662
   XY=              0.0145   XZ=              0.0204   YZ=             -0.0007

 Normal termination of Gaussian 09 at Thu Aug 27 00:07:53 2020.
