 Gaussian 09, Revision D.01,
 Gaussian 09:  ES64L-G09RevD.01 24-Apr-2013

 --------------------
 #p B2PLYPD3/Def2QZVP
 --------------------

 ------------
 cyanomethane
 ------------
 Symbolic Z-matrix:
 Charge =  0 Multiplicity = 1

                         Standard orientation:
 ---------------------------------------------------------------------
 Center     Atomic      Atomic             Coordinates (Angstroms)
 Number     Number       Type             X           Y           Z
 ---------------------------------------------------------------------
      1          6           0       -1.177682    0.004224   -0.005635
      2          6           0        0.283752    0.017302    0.006999
      3          7           0        1.438207   -0.009750   -0.005815
      4          1           0       -1.591208   -0.852627   -0.527959
      5          1           0       -1.583762    0.869158   -0.430741
      6          1           0       -1.528896   -0.077431    0.991222
 ---------------------------------------------------------------------

 SCF Done:  E(RB2PLYPD3) =  -132.533737621     A.U. after   12 cycles
 E2(B2PLYPD3) =    -0.1802336557D+00 E(B2PLYPD3) =    -0.13271397127619D+03

 The electronic state is 1-A.
 Alpha  occ. eigenvalues --  -14.84296 -10.66393 -10.66325  -1.04156  -0.89688
 Alpha  occ. eigenvalues --   -0.60530  -0.54717  -0.53580  -0.44880  -0.39270
 Alpha  occ. eigenvalues --   -0.39101
 Alpha virt. eigenvalues --    0.03844   0.07891   0.08358   0.10192   0.11286
 Alpha virt. eigenvalues --    0.11524   0.15488   0.16251   0.16969   0.20056
 Alpha virt. eigenvalues --    0.20132   0.25296   0.32862   0.34762   0.35425

 Mulliken charges:
               1
     1  C   -0.065425
     2  C    0.000463
     3  N   -0.206214
     4  H    0.088763
     5  H    0.092481
     6  H    0.089933
 Sum of Mulliken charges =   0.00000

 Dipole moment (field-independent basis, Debye):
    X=             -4.1499    Y=              0.0097    Z=              0.0249  Tot=              4.1500
 Quadrupole moment (field-independent basis, Debye-Ang):
   XX=            -20.7383   YY=            -17.7512   ZZ=            -17.8183
   XY=              0.0707   XZ=              0.0399   YZ=             -0.0359

 Normal termination of Gaussian 09 at Thu Aug 27 00:00:14 2020.
