 Gaussian 09, Revision D.01,
 Gaussian 09:  ES64L-G09RevD.01 24-Apr-2013

 --------------------
 #p B2PLYPD3/Def2QZVP
 --------------------

 ------------
 cyanomethane
 ------------
 Symbolic Z-matrix:
 Charge =  0 Multiplicity = 1

                         Standard orientation:
 ---------------------------------------------------------------------
 Center     Atomic      Atomic             Coordinates (Angstroms)
 Number     Number       Type             X           Y           Z
 ---------------------------------------------------------------------
      1          6           0       -1.212892    0.028292   -0.020612
      2          6           0        0.295051    0.002856   -0.045493
      3          7           0        1.434592   -0.012078    0.027477
      4          1           0       -1.405209    1.026681    0.000209
      5          1           0       -1.579569   -0.495354    0.981196
      6          1           0       -1.550319   -0.633663   -0.777109
 ---------------------------------------------------------------------

 SCF Done:  E(RB2PLYPD3) =  -132.519685087     A.U. after   12 cycles
 E2(B2PLYPD3) =    -0.1797309963D+00 E(B2PLYPD3) =    -0.13269941608311D+03

 The electronic state is 1-A.
 Alpha  occ. eigenvalues --  -14.83689 -10.67655 -10.65819  -1.04407  -0.88829
 Alpha  occ. eigenvalues --   -0.58017  -0.57143  -0.51266  -0.44447  -0.39724
 Alpha  occ. eigenvalues --   -0.39037
 Alpha virt. eigenvalues --    0.03418   0.07716   0.09392   0.10276   0.10935
 Alpha virt. eigenvalues --    0.11683   0.14812   0.15957   0.16043   0.19927
 Alpha virt. eigenvalues --    0.20106   0.24358   0.31565   0.32947   0.36561

 Mulliken charges:
               1
     1  C   -0.103501
     2  C   -0.010256
     3  N   -0.200050
     4  H    0.117238
     5  H    0.088648
     6  H    0.107922
 Sum of Mulliken charges =   0.00000

 Dipole moment (field-independent basis, Debye):
    X=             -4.1019    Y=             -0.0093    Z=             -0.0382  Tot=              4.1021
 Quadrupole moment (field-independent basis, Debye-Ang):
   XX=            -21.3500   YY=            -17.4052   ZZ=            -17.9123
   XY=              0.2891   XZ=             -0.2050   YZ=              0.1223

 Normal termination of Gaussian 09 at Wed Aug 26 18:29:41 2020.
