 Gaussian 09, Revision D.01,
 Gaussian 09:  ES64L-G09RevD.01 24-Apr-2013

 --------------------
 #p B2PLYPD3/Def2QZVP
 --------------------

 ------------
 cyanomethane
 ------------
 Symbolic Z-matrix:
 Charge =  0 Multiplicity = 1

                         Standard orientation:
 ---------------------------------------------------------------------
 Center     Atomic      Atomic             Coordinates (Angstroms)
 Number     Number       Type             X           Y           Z
 ---------------------------------------------------------------------
      1          6           0       -1.170303    0.004284    0.012692
      2          6           0        0.275477    0.006583   -0.018757
      3          7           0        1.437553   -0.003826    0.005357
      4          1           0       -1.593632   -0.734734   -0.722083
      5          1           0       -1.576906    0.979801   -0.257734
      6          1           0       -1.523376   -0.283490    0.978706
 ---------------------------------------------------------------------

 SCF Done:  E(RB2PLYPD3) =  -132.533625698     A.U. after   11 cycles
 E2(B2PLYPD3) =    -0.1812541719D+00 E(B2PLYPD3) =    -0.13271487987039D+03

 The electronic state is 1-A.
 Alpha  occ. eigenvalues --  -14.84473 -10.67172 -10.66519  -1.03875  -0.89296
 Alpha  occ. eigenvalues --   -0.60256  -0.54408  -0.52973  -0.44900  -0.38943
 Alpha  occ. eigenvalues --   -0.38751
 Alpha virt. eigenvalues --    0.03721   0.07359   0.07759   0.10138   0.11359
 Alpha virt. eigenvalues --    0.11566   0.15479   0.16356   0.16531   0.20097
 Alpha virt. eigenvalues --    0.20149   0.25578   0.32597   0.34167   0.35029

 Mulliken charges:
               1
     1  C   -0.078333
     2  C    0.001745
     3  N   -0.209333
     4  H    0.090913
     5  H    0.096008
     6  H    0.099000
 Sum of Mulliken charges =   0.00000

 Dipole moment (field-independent basis, Debye):
    X=             -4.1392    Y=              0.0013    Z=             -0.0001  Tot=              4.1392
 Quadrupole moment (field-independent basis, Debye-Ang):
   XX=            -20.9093   YY=            -17.8050   ZZ=            -17.8153
   XY=              0.0312   XZ=              0.0135   YZ=             -0.0507

 Normal termination of Gaussian 09 at Wed Aug 26 23:55:38 2020.
