 Gaussian 09, Revision D.01,
 Gaussian 09:  ES64L-G09RevD.01 24-Apr-2013

 --------------------
 #p B2PLYPD3/Def2QZVP
 --------------------

 ------------
 cyanomethane
 ------------
 Symbolic Z-matrix:
 Charge =  0 Multiplicity = 1

                         Standard orientation:
 ---------------------------------------------------------------------
 Center     Atomic      Atomic             Coordinates (Angstroms)
 Number     Number       Type             X           Y           Z
 ---------------------------------------------------------------------
      1          6           0        1.183140    0.000077   -0.035452
      2          6           0       -0.288693   -0.026091    0.013868
      3          7           0       -1.442813    0.019248   -0.008208
      4          1           0        1.665532    1.016962   -0.132200
      5          1           0        1.582066   -0.685083   -0.632354
      6          1           0        1.485411   -0.310535    0.951516
 ---------------------------------------------------------------------

 SCF Done:  E(RB2PLYPD3) =  -132.523344340     A.U. after   12 cycles
 E2(B2PLYPD3) =    -0.1805839378D+00 E(B2PLYPD3) =    -0.13270392827826D+03

 The electronic state is 1-A.
 Alpha  occ. eigenvalues --  -14.84357 -10.66555 -10.66505  -1.04156  -0.89664
 Alpha  occ. eigenvalues --   -0.60702  -0.55250  -0.52382  -0.44911  -0.39480
 Alpha  occ. eigenvalues --   -0.38882
 Alpha virt. eigenvalues --    0.03647   0.07525   0.08669   0.10137   0.11064
 Alpha virt. eigenvalues --    0.11717   0.15377   0.15449   0.18205   0.20124
 Alpha virt. eigenvalues --    0.20330   0.25196   0.32520   0.33640   0.35761

 Mulliken charges:
               1
     1  C   -0.071222
     2  C    0.005676
     3  N   -0.206462
     4  H    0.093038
     5  H    0.096254
     6  H    0.082715
 Sum of Mulliken charges =   0.00000

 Dipole moment (field-independent basis, Debye):
    X=              4.1589    Y=             -0.0716    Z=              0.0866  Tot=              4.1604
 Quadrupole moment (field-independent basis, Debye-Ang):
   XX=            -20.6824   YY=            -17.6356   ZZ=            -18.0176
   XY=              0.0953   XZ=              0.0576   YZ=              0.1021

 Normal termination of Gaussian 09 at Wed Aug 26 23:54:03 2020.
