 Gaussian 09, Revision D.01,
 Gaussian 09:  ES64L-G09RevD.01 24-Apr-2013

 --------------------
 #p B2PLYPD3/Def2QZVP
 --------------------

 ------------
 cyanomethane
 ------------
 Symbolic Z-matrix:
 Charge =  0 Multiplicity = 1

                         Standard orientation:
 ---------------------------------------------------------------------
 Center     Atomic      Atomic             Coordinates (Angstroms)
 Number     Number       Type             X           Y           Z
 ---------------------------------------------------------------------
      1          6           0        1.176262   -0.014831    0.008310
      2          6           0       -0.260405    0.031954    0.004174
      3          7           0       -1.429965   -0.017100   -0.000956
      4          1           0        1.530401    0.011294    1.041144
      5          1           0        1.469249    0.928080   -0.559430
      6          1           0        1.514969   -0.922415   -0.549928
 ---------------------------------------------------------------------

 SCF Done:  E(RB2PLYPD3) =  -132.529099308     A.U. after   12 cycles
 E2(B2PLYPD3) =    -0.1822705128D+00 E(B2PLYPD3) =    -0.13271136982036D+03

 The electronic state is 1-A.
 Alpha  occ. eigenvalues --  -14.84417 -10.67853 -10.66460  -1.03425  -0.89287
 Alpha  occ. eigenvalues --   -0.58881  -0.54544  -0.53465  -0.44668  -0.38513
 Alpha  occ. eigenvalues --   -0.38239
 Alpha virt. eigenvalues --    0.03561   0.07246   0.07591   0.10050   0.11298
 Alpha virt. eigenvalues --    0.11527   0.15250   0.15324   0.16311   0.20186
 Alpha virt. eigenvalues --    0.20217   0.25660   0.32337   0.33411   0.34503

 Mulliken charges:
               1
     1  C   -0.108821
     2  C    0.003014
     3  N   -0.215821
     4  H    0.109417
     5  H    0.103648
     6  H    0.108564
 Sum of Mulliken charges =   0.00000

 Dipole moment (field-independent basis, Debye):
    X=              4.1075    Y=              0.0244    Z=             -0.0027  Tot=              4.1075
 Quadrupole moment (field-independent basis, Debye-Ang):
   XX=            -21.4671   YY=            -17.7307   ZZ=            -17.6780
   XY=             -0.1181   XZ=              0.0246   YZ=              0.0264

 Normal termination of Gaussian 09 at Wed Aug 26 10:44:31 2020.
