 Gaussian 09, Revision D.01,
 Gaussian 09:  ES64L-G09RevD.01 24-Apr-2013

 --------------------
 #p B2PLYPD3/Def2QZVP
 --------------------

 ------------
 cyanomethane
 ------------
 Symbolic Z-matrix:
 Charge =  0 Multiplicity = 1

                         Standard orientation:
 ---------------------------------------------------------------------
 Center     Atomic      Atomic             Coordinates (Angstroms)
 Number     Number       Type             X           Y           Z
 ---------------------------------------------------------------------
      1          6           0        1.154486   -0.038134    0.006347
      2          6           0       -0.250281    0.014717   -0.083281
      3          7           0       -1.434670    0.002621    0.041633
      4          1           0        1.619287    1.064788   -0.113801
      5          1           0        1.494463   -0.630441   -0.684595
      6          1           0        1.503713   -0.312192    0.968574
 ---------------------------------------------------------------------

 SCF Done:  E(RB2PLYPD3) =  -132.508742222     A.U. after   12 cycles
 E2(B2PLYPD3) =    -0.1839463511D+00 E(B2PLYPD3) =    -0.13269268857280D+03

 The electronic state is 1-A.
 Alpha  occ. eigenvalues --  -14.85241 -10.67111 -10.66268  -1.02969  -0.90711
 Alpha  occ. eigenvalues --   -0.61402  -0.57051  -0.51834  -0.45065  -0.38341
 Alpha  occ. eigenvalues --   -0.37665
 Alpha virt. eigenvalues --    0.03371   0.05793   0.08059   0.09892   0.10841
 Alpha virt. eigenvalues --    0.11798   0.15735   0.16018   0.16534   0.20114
 Alpha virt. eigenvalues --    0.20365   0.26496   0.31282   0.34343   0.35447

 Mulliken charges:
               1
     1  C   -0.076515
     2  C    0.010208
     3  N   -0.222089
     4  H    0.083984
     5  H    0.106191
     6  H    0.098221
 Sum of Mulliken charges =   0.00000

 Dipole moment (field-independent basis, Debye):
    X=              4.1280    Y=             -0.0357    Z=             -0.0087  Tot=              4.1282
 Quadrupole moment (field-independent basis, Debye-Ang):
   XX=            -20.9461   YY=            -17.8205   ZZ=            -17.8352
   XY=              0.0546   XZ=              0.2717   YZ=              0.1298

 Normal termination of Gaussian 09 at Wed Aug 26 23:11:01 2020.
