 Gaussian 09, Revision D.01,
 Gaussian 09:  ES64L-G09RevD.01 24-Apr-2013

 --------------------
 #p B2PLYPD3/Def2QZVP
 --------------------

 ------------
 cyanomethane
 ------------
 Symbolic Z-matrix:
 Charge =  0 Multiplicity = 1

                         Standard orientation:
 ---------------------------------------------------------------------
 Center     Atomic      Atomic             Coordinates (Angstroms)
 Number     Number       Type             X           Y           Z
 ---------------------------------------------------------------------
      1          6           0        1.167723    0.004137    0.002371
      2          6           0       -0.276359   -0.005185   -0.010615
      3          7           0       -1.433620    0.001639    0.003307
      4          1           0        1.559075    1.017856   -0.174414
      5          1           0        1.588782   -0.672309   -0.769671
      6          1           0        1.539305   -0.350737    0.970398
 ---------------------------------------------------------------------

 SCF Done:  E(RB2PLYPD3) =  -132.534754448     A.U. after   11 cycles
 E2(B2PLYPD3) =    -0.1808953423D+00 E(B2PLYPD3) =    -0.13271564979082D+03

 The electronic state is 1-A.
 Alpha  occ. eigenvalues --  -14.84312 -10.67364 -10.66345  -1.04065  -0.89142
 Alpha  occ. eigenvalues --   -0.60077  -0.53780  -0.53330  -0.44868  -0.38962
 Alpha  occ. eigenvalues --   -0.38897
 Alpha virt. eigenvalues --    0.03704   0.07520   0.07644   0.10143   0.11503
 Alpha virt. eigenvalues --    0.11582   0.15486   0.16336   0.16534   0.20093
 Alpha virt. eigenvalues --    0.20116   0.25592   0.32722   0.34365   0.34553

 Mulliken charges:
               1
     1  C   -0.082533
     2  C    0.000844
     3  N   -0.206902
     4  H    0.097441
     5  H    0.094518
     6  H    0.096632
 Sum of Mulliken charges =   0.00000

 Dipole moment (field-independent basis, Debye):
    X=              4.1277    Y=             -0.0076    Z=              0.0034  Tot=              4.1278
 Quadrupole moment (field-independent basis, Debye-Ang):
   XX=            -20.9512   YY=            -17.7546   ZZ=            -17.8279
   XY=             -0.0162   XZ=              0.0020   YZ=             -0.0144

 Normal termination of Gaussian 09 at Thu Aug 27 00:11:39 2020.
