 Gaussian 09, Revision D.01,
 Gaussian 09:  ES64L-G09RevD.01 24-Apr-2013

 --------------------
 #p B2PLYPD3/Def2QZVP
 --------------------

 ------------
 cyanomethane
 ------------
 Symbolic Z-matrix:
 Charge =  0 Multiplicity = 1

                         Standard orientation:
 ---------------------------------------------------------------------
 Center     Atomic      Atomic             Coordinates (Angstroms)
 Number     Number       Type             X           Y           Z
 ---------------------------------------------------------------------
      1          6           0        1.177065   -0.002940   -0.017871
      2          6           0       -0.267404    0.019491    0.015917
      3          7           0       -1.428026   -0.011505   -0.002072
      4          1           0        1.577336   -0.310194    0.967803
      5          1           0        1.477415    0.991206   -0.213509
      6          1           0        1.483466   -0.699786   -0.728072
 ---------------------------------------------------------------------

 SCF Done:  E(RB2PLYPD3) =  -132.531945850     A.U. after   11 cycles
 E2(B2PLYPD3) =    -0.1807858174D+00 E(B2PLYPD3) =    -0.13271273166727D+03

 The electronic state is 1-A.
 Alpha  occ. eigenvalues --  -14.84220 -10.66409 -10.66230  -1.03821  -0.90104
 Alpha  occ. eigenvalues --   -0.59581  -0.55996  -0.53730  -0.44690  -0.38921
 Alpha  occ. eigenvalues --   -0.38690
 Alpha virt. eigenvalues --    0.03850   0.07764   0.08440   0.10148   0.11224
 Alpha virt. eigenvalues --    0.11531   0.15403   0.15867   0.16285   0.20110
 Alpha virt. eigenvalues --    0.20195   0.25570   0.32764   0.34359   0.35426

 Mulliken charges:
               1
     1  C   -0.085154
     2  C   -0.002040
     3  N   -0.211718
     4  H    0.092963
     5  H    0.102247
     6  H    0.103703
 Sum of Mulliken charges =   0.00000

 Dipole moment (field-independent basis, Debye):
    X=              4.1256    Y=              0.0127    Z=              0.0057  Tot=              4.1256
 Quadrupole moment (field-independent basis, Debye-Ang):
   XX=            -21.1444   YY=            -17.5889   ZZ=            -17.7683
   XY=             -0.0990   XZ=              0.0796   YZ=              0.0461

 Normal termination of Gaussian 09 at Wed Aug 26 13:54:07 2020.
