 Gaussian 09, Revision D.01,
 Gaussian 09:  ES64L-G09RevD.01 24-Apr-2013

 --------------------
 #p B2PLYPD3/Def2QZVP
 --------------------

 ------------
 cyanomethane
 ------------
 Symbolic Z-matrix:
 Charge =  0 Multiplicity = 1

                         Standard orientation:
 ---------------------------------------------------------------------
 Center     Atomic      Atomic             Coordinates (Angstroms)
 Number     Number       Type             X           Y           Z
 ---------------------------------------------------------------------
      1          6           0       -1.199519    0.005495   -0.009175
      2          6           0        0.291035   -0.032918    0.034323
      3          7           0        1.435045    0.015060   -0.018371
      4          1           0       -1.557299   -0.645311   -0.850601
      5          1           0       -1.511340    1.081596   -0.155935
      6          1           0       -1.525769   -0.377166    0.984249
 ---------------------------------------------------------------------

 SCF Done:  E(RB2PLYPD3) =  -132.531292757     A.U. after   12 cycles
 E2(B2PLYPD3) =    -0.1802666105D+00 E(B2PLYPD3) =    -0.13271155936750D+03

 The electronic state is 1-A.
 Alpha  occ. eigenvalues --  -14.83868 -10.68477 -10.65998  -1.04297  -0.87982
 Alpha  occ. eigenvalues --   -0.57880  -0.53591  -0.53256  -0.44570  -0.39270
 Alpha  occ. eigenvalues --   -0.39201
 Alpha virt. eigenvalues --    0.03474   0.07761   0.08225   0.10193   0.11352
 Alpha virt. eigenvalues --    0.11494   0.14994   0.15579   0.16432   0.19997
 Alpha virt. eigenvalues --    0.20059   0.24843   0.32210   0.33843   0.34127

 Mulliken charges:
               1
     1  C   -0.112506
     2  C   -0.004203
     3  N   -0.201187
     4  H    0.106421
     5  H    0.106725
     6  H    0.104749
 Sum of Mulliken charges =   0.00000

 Dipole moment (field-independent basis, Debye):
    X=             -4.0911    Y=             -0.0194    Z=              0.0293  Tot=              4.0913
 Quadrupole moment (field-independent basis, Debye-Ang):
   XX=            -21.3836   YY=            -17.6939   ZZ=            -17.6958
   XY=             -0.0596   XZ=              0.1191   YZ=              0.0128

 Normal termination of Gaussian 09 at Wed Aug 26 13:43:16 2020.
