 Gaussian 09, Revision D.01,
 Gaussian 09:  ES64L-G09RevD.01 24-Apr-2013

 --------------------
 #p B2PLYPD3/Def2QZVP
 --------------------

 ------------
 cyanomethane
 ------------
 Symbolic Z-matrix:
 Charge =  0 Multiplicity = 1

                         Standard orientation:
 ---------------------------------------------------------------------
 Center     Atomic      Atomic             Coordinates (Angstroms)
 Number     Number       Type             X           Y           Z
 ---------------------------------------------------------------------
      1          6           0        1.194497    0.009872   -0.003889
      2          6           0       -0.278995   -0.024436    0.030860
      3          7           0       -1.440269    0.014679   -0.014271
      4          1           0        1.547019   -0.073955    0.987624
      5          1           0        1.554725    0.941263   -0.464465
      6          1           0        1.487125   -0.882678   -0.585088
 ---------------------------------------------------------------------

 SCF Done:  E(RB2PLYPD3) =  -132.532676441     A.U. after   12 cycles
 E2(B2PLYPD3) =    -0.1811957672D+00 E(B2PLYPD3) =    -0.13271387220869D+03

 The electronic state is 1-A.
 Alpha  occ. eigenvalues --  -14.84350 -10.67285 -10.66459  -1.03695  -0.89138
 Alpha  occ. eigenvalues --   -0.59001  -0.54423  -0.53982  -0.44688  -0.38926
 Alpha  occ. eigenvalues --   -0.38816
 Alpha virt. eigenvalues --    0.03665   0.07701   0.08332   0.10164   0.11185
 Alpha virt. eigenvalues --    0.11303   0.15140   0.15617   0.16509   0.20110
 Alpha virt. eigenvalues --    0.20143   0.25108   0.32496   0.34233   0.34762

 Mulliken charges:
               1
     1  C   -0.093829
     2  C   -0.001617
     3  N   -0.210806
     4  H    0.101238
     5  H    0.103388
     6  H    0.101627
 Sum of Mulliken charges =   0.00000

 Dipole moment (field-independent basis, Debye):
    X=              4.1327    Y=             -0.0260    Z=              0.0331  Tot=              4.1329
 Quadrupole moment (field-independent basis, Debye-Ang):
   XX=            -21.1909   YY=            -17.6586   ZZ=            -17.8045
   XY=              0.1145   XZ=             -0.0123   YZ=             -0.0055

 Normal termination of Gaussian 09 at Wed Aug 26 15:12:06 2020.
