 Gaussian 09, Revision D.01,
 Gaussian 09:  ES64L-G09RevD.01 24-Apr-2013

 --------------------
 #p B2PLYPD3/Def2QZVP
 --------------------

 ------------
 cyanomethane
 ------------
 Symbolic Z-matrix:
 Charge =  0 Multiplicity = 1

                         Standard orientation:
 ---------------------------------------------------------------------
 Center     Atomic      Atomic             Coordinates (Angstroms)
 Number     Number       Type             X           Y           Z
 ---------------------------------------------------------------------
      1          6           0        1.182957    0.031437   -0.012961
      2          6           0       -0.272721    0.015634   -0.038221
      3          7           0       -1.421965   -0.021250    0.026965
      4          1           0        1.629180   -0.423701    0.927599
      5          1           0        1.347556    0.942324   -0.078271
      6          1           0        1.515600   -0.652294   -0.730993
 ---------------------------------------------------------------------

 SCF Done:  E(RB2PLYPD3) =  -132.504471718     A.U. after   12 cycles
 E2(B2PLYPD3) =    -0.1800080932D+00 E(B2PLYPD3) =    -0.13268447981071D+03

 The electronic state is 1-A.
 Alpha  occ. eigenvalues --  -14.83973 -10.65948 -10.65461  -1.04232  -0.91153
 Alpha  occ. eigenvalues --   -0.59796  -0.58919  -0.52114  -0.44631  -0.39433
 Alpha  occ. eigenvalues --   -0.38743
 Alpha virt. eigenvalues --    0.03673   0.07592   0.09692   0.10277   0.10838
 Alpha virt. eigenvalues --    0.11770   0.15285   0.15817   0.16665   0.19990
 Alpha virt. eigenvalues --    0.20231   0.25351   0.32517   0.33821   0.36733

 Mulliken charges:
               1
     1  C   -0.098108
     2  C   -0.004809
     3  N   -0.207336
     4  H    0.085619
     5  H    0.124311
     6  H    0.100323
 Sum of Mulliken charges =   0.00000

 Dipole moment (field-independent basis, Debye):
    X=              4.1039    Y=             -0.0159    Z=             -0.0382  Tot=              4.1041
 Quadrupole moment (field-independent basis, Debye-Ang):
   XX=            -21.0395   YY=            -17.3711   ZZ=            -17.8913
   XY=             -0.3970   XZ=              0.2572   YZ=              0.0553

 Normal termination of Gaussian 09 at Wed Aug 26 21:51:58 2020.
