 Gaussian 09, Revision D.01,
 Gaussian 09:  ES64L-G09RevD.01 24-Apr-2013

 --------------------
 #p B2PLYPD3/Def2QZVP
 --------------------

 ------------
 cyanomethane
 ------------
 Symbolic Z-matrix:
 Charge =  0 Multiplicity = 1

                         Standard orientation:
 ---------------------------------------------------------------------
 Center     Atomic      Atomic             Coordinates (Angstroms)
 Number     Number       Type             X           Y           Z
 ---------------------------------------------------------------------
      1          6           0       -1.207507   -0.003246   -0.029777
      2          6           0        0.289639    0.026584    0.027065
      3          7           0        1.434945   -0.003211   -0.007759
      4          1           0       -1.524043   -0.331716    1.006126
      5          1           0       -1.381493   -0.772907   -0.711439
      6          1           0       -1.631868    0.987071   -0.224096
 ---------------------------------------------------------------------

 SCF Done:  E(RB2PLYPD3) =  -132.529047554     A.U. after   12 cycles
 E2(B2PLYPD3) =    -0.1799283112D+00 E(B2PLYPD3) =    -0.13270897586511D+03

 The electronic state is 1-A.
 Alpha  occ. eigenvalues --  -14.83779 -10.67631 -10.65956  -1.04248  -0.88798
 Alpha  occ. eigenvalues --   -0.57963  -0.55789  -0.52749  -0.44471  -0.39459
 Alpha  occ. eigenvalues --   -0.39072
 Alpha virt. eigenvalues --    0.03694   0.08048   0.08769   0.10275   0.11143
 Alpha virt. eigenvalues --    0.11610   0.14773   0.15456   0.16579   0.19989
 Alpha virt. eigenvalues --    0.20128   0.24623   0.32097   0.33436   0.35771

 Mulliken charges:
               1
     1  C   -0.105822
     2  C   -0.007358
     3  N   -0.203255
     4  H    0.095758
     5  H    0.113793
     6  H    0.106883
 Sum of Mulliken charges =   0.00000

 Dipole moment (field-independent basis, Debye):
    X=             -4.1170    Y=             -0.0082    Z=              0.0289  Tot=              4.1171
 Quadrupole moment (field-independent basis, Debye-Ang):
   XX=            -21.3256   YY=            -17.5337   ZZ=            -17.8044
   XY=             -0.1450   XZ=             -0.0750   YZ=              0.0806

 Normal termination of Gaussian 09 at Wed Aug 26 20:18:37 2020.
