 Gaussian 09, Revision D.01,
 Gaussian 09:  ES64L-G09RevD.01 24-Apr-2013

 --------------------
 #p B2PLYPD3/Def2QZVP
 --------------------

 ------------
 cyanomethane
 ------------
 Symbolic Z-matrix:
 Charge =  0 Multiplicity = 1

                         Standard orientation:
 ---------------------------------------------------------------------
 Center     Atomic      Atomic             Coordinates (Angstroms)
 Number     Number       Type             X           Y           Z
 ---------------------------------------------------------------------
      1          6           0       -1.176182   -0.014190   -0.005787
      2          6           0        0.295527    0.031386    0.004824
      3          7           0        1.437765   -0.009689   -0.000927
      4          1           0       -1.580557   -0.379428    0.967928
      5          1           0       -1.536907   -0.680641   -0.788737
      6          1           0       -1.662965    1.024717   -0.166926
 ---------------------------------------------------------------------

 SCF Done:  E(RB2PLYPD3) =  -132.531755056     A.U. after   12 cycles
 E2(B2PLYPD3) =    -0.1800130545D+00 E(B2PLYPD3) =    -0.13271176811065D+03

 The electronic state is 1-A.
 Alpha  occ. eigenvalues --  -14.84053 -10.68156 -10.66175  -1.04662  -0.88116
 Alpha  occ. eigenvalues --   -0.59645  -0.53433  -0.52034  -0.44886  -0.39501
 Alpha  occ. eigenvalues --   -0.39322
 Alpha virt. eigenvalues --    0.03566   0.07341   0.07887   0.10203   0.11570
 Alpha virt. eigenvalues --    0.11709   0.15308   0.16615   0.16765   0.19975
 Alpha virt. eigenvalues --    0.20020   0.25167   0.32126   0.33974   0.34703

 Mulliken charges:
               1
     1  C   -0.087552
     2  C    0.000333
     3  N   -0.197684
     4  H    0.094745
     5  H    0.099989
     6  H    0.090170
 Sum of Mulliken charges =   0.00000

 Dipole moment (field-independent basis, Debye):
    X=             -4.1077    Y=             -0.0077    Z=              0.0074  Tot=              4.1078
 Quadrupole moment (field-independent basis, Debye-Ang):
   XX=            -20.8694   YY=            -17.8240   ZZ=            -17.8444
   XY=              0.0143   XZ=             -0.0295   YZ=              0.0450

 Normal termination of Gaussian 09 at Wed Aug 26 12:21:12 2020.
