 Gaussian 09, Revision D.01,
 Gaussian 09:  ES64L-G09RevD.01 24-Apr-2013

 --------------------
 #p B2PLYPD3/Def2QZVP
 --------------------

 ------------
 cyanomethane
 ------------
 Symbolic Z-matrix:
 Charge =  0 Multiplicity = 1

                         Standard orientation:
 ---------------------------------------------------------------------
 Center     Atomic      Atomic             Coordinates (Angstroms)
 Number     Number       Type             X           Y           Z
 ---------------------------------------------------------------------
      1          6           0        1.179530    0.017165   -0.012330
      2          6           0       -0.295388   -0.076577   -0.018378
      3          7           0       -1.442218    0.033802    0.007270
      4          1           0        1.520219    1.026046    0.112663
      5          1           0        1.680205   -0.385872   -0.845917
      6          1           0        1.590252   -0.520310    0.866612
 ---------------------------------------------------------------------

 SCF Done:  E(RB2PLYPD3) =  -132.531663509     A.U. after   12 cycles
 E2(B2PLYPD3) =    -0.1804088954D+00 E(B2PLYPD3) =    -0.13271207240419D+03

 The electronic state is 1-A.
 Alpha  occ. eigenvalues --  -14.84410 -10.66901 -10.66537  -1.04345  -0.88938
 Alpha  occ. eigenvalues --   -0.60662  -0.54016  -0.52683  -0.45009  -0.39478
 Alpha  occ. eigenvalues --   -0.39209
 Alpha virt. eigenvalues --    0.03640   0.07627   0.08112   0.10190   0.11255
 Alpha virt. eigenvalues --    0.11616   0.15380   0.16379   0.17274   0.20000
 Alpha virt. eigenvalues --    0.20048   0.25420   0.32603   0.34343   0.35420

 Mulliken charges:
               1
     1  C   -0.065636
     2  C    0.006257
     3  N   -0.203530
     4  H    0.091513
     5  H    0.089090
     6  H    0.082306
 Sum of Mulliken charges =   0.00000

 Dipole moment (field-independent basis, Debye):
    X=              4.1299    Y=             -0.0381    Z=              0.0028  Tot=              4.1301
 Quadrupole moment (field-independent basis, Debye-Ang):
   XX=            -20.5995   YY=            -17.8569   ZZ=            -17.8819
   XY=              0.1333   XZ=              0.0163   YZ=              0.0408

 Normal termination of Gaussian 09 at Wed Aug 26 23:50:26 2020.
