 Gaussian 09, Revision D.01,
 Gaussian 09:  ES64L-G09RevD.01 24-Apr-2013

 --------------------
 #p B2PLYPD3/Def2QZVP
 --------------------

 ------------
 cyanomethane
 ------------
 Symbolic Z-matrix:
 Charge =  0 Multiplicity = 1

                         Standard orientation:
 ---------------------------------------------------------------------
 Center     Atomic      Atomic             Coordinates (Angstroms)
 Number     Number       Type             X           Y           Z
 ---------------------------------------------------------------------
      1          6           0       -1.186230   -0.006369    0.023664
      2          6           0        0.285604    0.030436   -0.005532
      3          7           0        1.437038   -0.007769    0.003203
      4          1           0       -1.574016   -0.198398    1.011267
      5          1           0       -1.456494   -0.922785   -0.706671
      6          1           0       -1.624998    1.031166   -0.435801
 ---------------------------------------------------------------------

 SCF Done:  E(RB2PLYPD3) =  -132.518174997     A.U. after   12 cycles
 E2(B2PLYPD3) =    -0.1814727582D+00 E(B2PLYPD3) =    -0.13269964775476D+03

 The electronic state is 1-A.
 Alpha  occ. eigenvalues --  -14.84117 -10.69527 -10.66285  -1.04171  -0.87552
 Alpha  occ. eigenvalues --   -0.58717  -0.52919  -0.51506  -0.44712  -0.39129
 Alpha  occ. eigenvalues --   -0.38710
 Alpha virt. eigenvalues --    0.03135   0.06658   0.07563   0.10138   0.11457
 Alpha virt. eigenvalues --    0.11821   0.14977   0.15622   0.16602   0.20020
 Alpha virt. eigenvalues --    0.20096   0.25050   0.30995   0.32029   0.34133

 Mulliken charges:
               1
     1  C   -0.124587
     2  C    0.005702
     3  N   -0.203326
     4  H    0.114586
     5  H    0.104950
     6  H    0.102676
 Sum of Mulliken charges =   0.00000

 Dipole moment (field-independent basis, Debye):
    X=             -4.0741    Y=             -0.0134    Z=              0.0205  Tot=              4.0742
 Quadrupole moment (field-independent basis, Debye-Ang):
   XX=            -21.4323   YY=            -17.7213   ZZ=            -17.8304
   XY=             -0.0337   XZ=             -0.1225   YZ=             -0.0350

 Normal termination of Gaussian 09 at Wed Aug 26 16:27:09 2020.
