 Gaussian 09, Revision D.01,
 Gaussian 09:  ES64L-G09RevD.01 24-Apr-2013

 --------------------
 #p B2PLYPD3/Def2QZVP
 --------------------

 ------------
 cyanomethane
 ------------
 Symbolic Z-matrix:
 Charge =  0 Multiplicity = 1

                         Standard orientation:
 ---------------------------------------------------------------------
 Center     Atomic      Atomic             Coordinates (Angstroms)
 Number     Number       Type             X           Y           Z
 ---------------------------------------------------------------------
      1          6           0        1.163831    0.003415   -0.042444
      2          6           0       -0.286700   -0.033138    0.002718
      3          7           0       -1.419158    0.021156    0.002801
      4          1           0        1.609062    1.068838   -0.052659
      5          1           0        1.532305   -0.638364   -0.696718
      6          1           0        1.529954   -0.400235    0.968132
 ---------------------------------------------------------------------

 SCF Done:  E(RB2PLYPD3) =  -132.521061509     A.U. after   12 cycles
 E2(B2PLYPD3) =    -0.1790952097D+00 E(B2PLYPD3) =    -0.13270015671846D+03

 The electronic state is 1-A.
 Alpha  occ. eigenvalues --  -14.83628 -10.67142 -10.65654  -1.05005  -0.89349
 Alpha  occ. eigenvalues --   -0.60308  -0.55481  -0.51435  -0.44768  -0.39885
 Alpha  occ. eigenvalues --   -0.39029
 Alpha virt. eigenvalues --    0.03530   0.07214   0.08938   0.10150   0.11334
 Alpha virt. eigenvalues --    0.12249   0.15386   0.15755   0.17878   0.19955
 Alpha virt. eigenvalues --    0.20137   0.25597   0.32425   0.32870   0.35561

 Mulliken charges:
               1
     1  C   -0.088445
     2  C    0.000187
     3  N   -0.195242
     4  H    0.099173
     5  H    0.103832
     6  H    0.080495
 Sum of Mulliken charges =   0.00000

 Dipole moment (field-independent basis, Debye):
    X=              4.0876    Y=             -0.0691    Z=              0.0431  Tot=              4.0884
 Quadrupole moment (field-independent basis, Debye-Ang):
   XX=            -20.9156   YY=            -17.5066   ZZ=            -17.9313
   XY=              0.1006   XZ=              0.1306   YZ=              0.1612

 Normal termination of Gaussian 09 at Wed Aug 26 19:55:37 2020.
