 Gaussian 09, Revision D.01,
 Gaussian 09:  ES64L-G09RevD.01 24-Apr-2013

 --------------------
 #p B2PLYPD3/Def2QZVP
 --------------------

 ------------
 cyanomethane
 ------------
 Symbolic Z-matrix:
 Charge =  0 Multiplicity = 1

                         Standard orientation:
 ---------------------------------------------------------------------
 Center     Atomic      Atomic             Coordinates (Angstroms)
 Number     Number       Type             X           Y           Z
 ---------------------------------------------------------------------
      1          6           0       -1.146400   -0.011668   -0.027629
      2          6           0        0.284422    0.049620    0.011532
      3          7           0        1.430699   -0.017413    0.000742
      4          1           0       -1.647918   -0.181149    0.930964
      5          1           0       -1.495063   -0.785441   -0.538237
      6          1           0       -1.700040    0.860771   -0.301343
 ---------------------------------------------------------------------

 SCF Done:  E(RB2PLYPD3) =  -132.521297165     A.U. after   11 cycles
 E2(B2PLYPD3) =    -0.1800055317D+00 E(B2PLYPD3) =    -0.13270130269644D+03

 The electronic state is 1-A.
 Alpha  occ. eigenvalues --  -14.84324 -10.66351 -10.65543  -1.04669  -0.90442
 Alpha  occ. eigenvalues --   -0.62849  -0.55513  -0.51742  -0.45136  -0.39616
 Alpha  occ. eigenvalues --   -0.39016
 Alpha virt. eigenvalues --    0.03827   0.07513   0.08092   0.10182   0.11427
 Alpha virt. eigenvalues --    0.12025   0.15721   0.16901   0.17834   0.20039
 Alpha virt. eigenvalues --    0.20212   0.25978   0.32995   0.34479   0.36332

 Mulliken charges:
               1
     1  C   -0.041293
     2  C    0.013824
     3  N   -0.203537
     4  H    0.065536
     5  H    0.087175
     6  H    0.078296
 Sum of Mulliken charges =   0.00000

 Dipole moment (field-independent basis, Debye):
    X=             -4.1584    Y=             -0.0017    Z=              0.0380  Tot=              4.1586
 Quadrupole moment (field-independent basis, Debye-Ang):
   XX=            -20.1815   YY=            -17.7232   ZZ=            -18.0825
   XY=              0.0442   XZ=             -0.1668   YZ=              0.0892

 Normal termination of Gaussian 09 at Wed Aug 26 20:12:21 2020.
