 Gaussian 09, Revision D.01,
 Gaussian 09:  ES64L-G09RevD.01 24-Apr-2013

 --------------------
 #p B2PLYPD3/Def2QZVP
 --------------------

 ------------
 cyanomethane
 ------------
 Symbolic Z-matrix:
 Charge =  0 Multiplicity = 1

                         Standard orientation:
 ---------------------------------------------------------------------
 Center     Atomic      Atomic             Coordinates (Angstroms)
 Number     Number       Type             X           Y           Z
 ---------------------------------------------------------------------
      1          6           0       -1.187945   -0.010031   -0.000207
      2          6           0        0.286757    0.023920   -0.000425
      3          7           0        1.433617   -0.009574    0.001262
      4          1           0       -1.553274   -0.128802    1.004137
      5          1           0       -1.512555   -0.821023   -0.610733
      6          1           0       -1.562359    0.933512   -0.398450
 ---------------------------------------------------------------------

 SCF Done:  E(RB2PLYPD3) =  -132.535809046     A.U. after   11 cycles
 E2(B2PLYPD3) =    -0.1796792918D+00 E(B2PLYPD3) =    -0.13271548833745D+03

 The electronic state is 1-A.
 Alpha  occ. eigenvalues --  -14.83959 -10.66917 -10.66048  -1.04338  -0.89198
 Alpha  occ. eigenvalues --   -0.59274  -0.54546  -0.53875  -0.44693  -0.39355
 Alpha  occ. eigenvalues --   -0.39277
 Alpha virt. eigenvalues --    0.03814   0.08269   0.08367   0.10228   0.11397
 Alpha virt. eigenvalues --    0.11440   0.15298   0.16157   0.16453   0.20040
 Alpha virt. eigenvalues --    0.20062   0.25053   0.32695   0.34669   0.35066

 Mulliken charges:
               1
     1  C   -0.084993
     2  C   -0.004850
     3  N   -0.202723
     4  H    0.097216
     5  H    0.100050
     6  H    0.095299
 Sum of Mulliken charges =   0.00000

 Dipole moment (field-independent basis, Debye):
    X=             -4.1235    Y=              0.0120    Z=              0.0000  Tot=              4.1235
 Quadrupole moment (field-independent basis, Debye-Ang):
   XX=            -21.0253   YY=            -17.6963   ZZ=            -17.7170
   XY=              0.0221   XZ=             -0.0304   YZ=              0.0245

 Normal termination of Gaussian 09 at Wed Aug 26 09:57:02 2020.
