 Gaussian 09, Revision D.01,
 Gaussian 09:  ES64L-G09RevD.01 24-Apr-2013

 --------------------
 #p B2PLYPD3/Def2QZVP
 --------------------

 ------------
 cyanomethane
 ------------
 Symbolic Z-matrix:
 Charge =  0 Multiplicity = 1

                         Standard orientation:
 ---------------------------------------------------------------------
 Center     Atomic      Atomic             Coordinates (Angstroms)
 Number     Number       Type             X           Y           Z
 ---------------------------------------------------------------------
      1          6           0       -1.181640    0.017035   -0.001656
      2          6           0        0.283094    0.023184   -0.005653
      3          7           0        1.440142   -0.018681    0.005454
      4          1           0       -1.501689    1.036622   -0.047396
      5          1           0       -1.618377   -0.528284    0.923238
      6          1           0       -1.569656   -0.618888   -0.870160
 ---------------------------------------------------------------------

 SCF Done:  E(RB2PLYPD3) =  -132.528406899     A.U. after   12 cycles
 E2(B2PLYPD3) =    -0.1813388053D+00 E(B2PLYPD3) =    -0.13270974570395D+03

 The electronic state is 1-A.
 Alpha  occ. eigenvalues --  -14.84338 -10.68257 -10.66436  -1.03987  -0.88421
 Alpha  occ. eigenvalues --   -0.59140  -0.54783  -0.51525  -0.44815  -0.39132
 Alpha  occ. eigenvalues --   -0.38702
 Alpha virt. eigenvalues --    0.03452   0.06823   0.08075   0.10159   0.11129
 Alpha virt. eigenvalues --    0.11794   0.15195   0.16167   0.16489   0.19970
 Alpha virt. eigenvalues --    0.20196   0.25201   0.32182   0.33137   0.34856

 Mulliken charges:
               1
     1  C   -0.095983
     2  C    0.000491
     3  N   -0.206146
     4  H    0.108749
     5  H    0.095242
     6  H    0.097647
 Sum of Mulliken charges =   0.00000

 Dipole moment (field-independent basis, Debye):
    X=             -4.1176    Y=              0.0084    Z=             -0.0104  Tot=              4.1176
 Quadrupole moment (field-independent basis, Debye-Ang):
   XX=            -21.1176   YY=            -17.6163   ZZ=            -17.9997
   XY=              0.2385   XZ=             -0.0663   YZ=              0.0072

 Normal termination of Gaussian 09 at Wed Aug 26 15:27:59 2020.
