 Gaussian 09, Revision D.01,
 Gaussian 09:  ES64L-G09RevD.01 24-Apr-2013

 --------------------
 #p B2PLYPD3/Def2QZVP
 --------------------

 ------------
 cyanomethane
 ------------
 Symbolic Z-matrix:
 Charge =  0 Multiplicity = 1

                         Standard orientation:
 ---------------------------------------------------------------------
 Center     Atomic      Atomic             Coordinates (Angstroms)
 Number     Number       Type             X           Y           Z
 ---------------------------------------------------------------------
      1          6           0        1.181874    0.015614   -0.003631
      2          6           0       -0.289023   -0.037968    0.003555
      3          7           0       -1.436961    0.017377   -0.002919
      4          1           0        1.555490    1.066186   -0.072738
      5          1           0        1.591211   -0.600591   -0.823687
      6          1           0        1.554921   -0.453108    0.917313
 ---------------------------------------------------------------------

 SCF Done:  E(RB2PLYPD3) =  -132.534065438     A.U. after   12 cycles
 E2(B2PLYPD3) =    -0.1803146067D+00 E(B2PLYPD3) =    -0.13271438004473D+03

 The electronic state is 1-A.
 Alpha  occ. eigenvalues --  -14.84118 -10.67767 -10.66217  -1.04330  -0.88519
 Alpha  occ. eigenvalues --   -0.59370  -0.53717  -0.52931  -0.44802  -0.39310
 Alpha  occ. eigenvalues --   -0.39149
 Alpha virt. eigenvalues --    0.03601   0.07656   0.08011   0.10178   0.11431
 Alpha virt. eigenvalues --    0.11571   0.15272   0.15939   0.16949   0.20013
 Alpha virt. eigenvalues --    0.20072   0.25237   0.32542   0.34157   0.34557

 Mulliken charges:
               1
     1  C   -0.088882
     2  C   -0.000874
     3  N   -0.202306
     4  H    0.101696
     5  H    0.095355
     6  H    0.095011
 Sum of Mulliken charges =   0.00000

 Dipole moment (field-independent basis, Debye):
    X=              4.1174    Y=             -0.0486    Z=              0.0154  Tot=              4.1177
 Quadrupole moment (field-independent basis, Debye-Ang):
   XX=            -20.9927   YY=            -17.6406   ZZ=            -17.9232
   XY=              0.0195   XZ=             -0.0141   YZ=             -0.0013

 Normal termination of Gaussian 09 at Wed Aug 26 13:14:28 2020.
