 Gaussian 09, Revision D.01,
 Gaussian 09:  ES64L-G09RevD.01 24-Apr-2013

 --------------------
 #p B2PLYPD3/Def2QZVP
 --------------------

 ------------
 cyanomethane
 ------------
 Symbolic Z-matrix:
 Charge =  0 Multiplicity = 1

                         Standard orientation:
 ---------------------------------------------------------------------
 Center     Atomic      Atomic             Coordinates (Angstroms)
 Number     Number       Type             X           Y           Z
 ---------------------------------------------------------------------
      1          6           0        1.189759    0.011488    0.017907
      2          6           0       -0.284647   -0.027056   -0.003492
      3          7           0       -1.430541    0.011116   -0.002422
      4          1           0        1.504255    1.027535   -0.109428
      5          1           0        1.571024   -0.581419   -0.848280
      6          1           0        1.507839   -0.430520    0.888176
 ---------------------------------------------------------------------

 SCF Done:  E(RB2PLYPD3) =  -132.532574337     A.U. after   11 cycles
 E2(B2PLYPD3) =    -0.1795702214D+00 E(B2PLYPD3) =    -0.13271214455847D+03

 The electronic state is 1-A.
 Alpha  occ. eigenvalues --  -14.83877 -10.66751 -10.65950  -1.04342  -0.89442
 Alpha  occ. eigenvalues --   -0.59056  -0.55782  -0.53271  -0.44632  -0.39457
 Alpha  occ. eigenvalues --   -0.39152
 Alpha virt. eigenvalues --    0.03809   0.08072   0.08828   0.10228   0.11211
 Alpha virt. eigenvalues --    0.11602   0.15254   0.15988   0.16418   0.20016
 Alpha virt. eigenvalues --    0.20096   0.25055   0.32579   0.34221   0.35573

 Mulliken charges:
               1
     1  C   -0.087840
     2  C   -0.005934
     3  N   -0.203057
     4  H    0.102147
     5  H    0.091588
     6  H    0.103096
 Sum of Mulliken charges =   0.00000

 Dipole moment (field-independent basis, Debye):
    X=              4.1158    Y=             -0.0205    Z=              0.0012  Tot=              4.1159
 Quadrupole moment (field-independent basis, Debye-Ang):
   XX=            -21.1022   YY=            -17.6281   ZZ=            -17.7125
   XY=              0.0133   XZ=             -0.0645   YZ=             -0.0849

 Normal termination of Gaussian 09 at Wed Aug 26 14:51:31 2020.
