 Gaussian 09, Revision D.01,
 Gaussian 09:  ES64L-G09RevD.01 24-Apr-2013

 --------------------
 #p B2PLYPD3/Def2QZVP
 --------------------

 ------------
 cyanomethane
 ------------
 Symbolic Z-matrix:
 Charge =  0 Multiplicity = 1

                         Standard orientation:
 ---------------------------------------------------------------------
 Center     Atomic      Atomic             Coordinates (Angstroms)
 Number     Number       Type             X           Y           Z
 ---------------------------------------------------------------------
      1          6           0        1.189767    0.027294   -0.012785
      2          6           0       -0.284674   -0.010240   -0.048681
      3          7           0       -1.428164    0.008863    0.030363
      4          1           0        1.549799   -0.311811    0.965234
      5          1           0        1.591435    0.899350   -0.187787
      6          1           0        1.425354   -0.751907   -0.621188
 ---------------------------------------------------------------------

 SCF Done:  E(RB2PLYPD3) =  -132.518488520     A.U. after   12 cycles
 E2(B2PLYPD3) =    -0.1793638496D+00 E(B2PLYPD3) =    -0.13269785236993D+03

 The electronic state is 1-A.
 Alpha  occ. eigenvalues --  -14.83919 -10.66001 -10.65413  -1.04411  -0.90567
 Alpha  occ. eigenvalues --   -0.60640  -0.57021  -0.52947  -0.44694  -0.39665
 Alpha  occ. eigenvalues --   -0.39066
 Alpha virt. eigenvalues --    0.03833   0.08331   0.09421   0.10095   0.11022
 Alpha virt. eigenvalues --    0.11697   0.15341   0.15656   0.17412   0.19956
 Alpha virt. eigenvalues --    0.20190   0.25141   0.32988   0.34197   0.36478

 Mulliken charges:
               1
     1  C   -0.073646
     2  C   -0.001185
     3  N   -0.203632
     4  H    0.082250
     5  H    0.099562
     6  H    0.096651
 Sum of Mulliken charges =   0.00000

 Dipole moment (field-independent basis, Debye):
    X=              4.1236    Y=             -0.0544    Z=             -0.0269  Tot=              4.1240
 Quadrupole moment (field-independent basis, Debye-Ang):
   XX=            -20.8674   YY=            -17.4545   ZZ=            -17.8687
   XY=              0.0619   XZ=              0.2878   YZ=              0.0257

 Normal termination of Gaussian 09 at Wed Aug 26 18:43:59 2020.
