 Gaussian 09, Revision D.01,
 Gaussian 09:  ES64L-G09RevD.01 24-Apr-2013

 --------------------
 #p B2PLYPD3/Def2QZVP
 --------------------

 ------------
 cyanomethane
 ------------
 Symbolic Z-matrix:
 Charge =  0 Multiplicity = 1

                         Standard orientation:
 ---------------------------------------------------------------------
 Center     Atomic      Atomic             Coordinates (Angstroms)
 Number     Number       Type             X           Y           Z
 ---------------------------------------------------------------------
      1          6           0       -1.191629   -0.003617    0.022074
      2          6           0        0.266850    0.014034   -0.042426
      3          7           0        1.446712   -0.007759    0.017547
      4          1           0       -1.551828   -0.888102   -0.579654
      5          1           0       -1.529494    0.944950   -0.467469
      6          1           0       -1.496986   -0.065035    1.046407
 ---------------------------------------------------------------------

 SCF Done:  E(RB2PLYPD3) =  -132.528643317     A.U. after   12 cycles
 E2(B2PLYPD3) =    -0.1831408327D+00 E(B2PLYPD3) =    -0.13271178414943D+03

 The electronic state is 1-A.
 Alpha  occ. eigenvalues --  -14.84847 -10.67827 -10.66958  -1.02985  -0.89031
 Alpha  occ. eigenvalues --   -0.59000  -0.54593  -0.53361  -0.44749  -0.38405
 Alpha  occ. eigenvalues --   -0.38223
 Alpha virt. eigenvalues --    0.03586   0.07236   0.07421   0.10055   0.11138
 Alpha virt. eigenvalues --    0.11175   0.15183   0.15488   0.16204   0.20182
 Alpha virt. eigenvalues --    0.20231   0.25372   0.32093   0.33581   0.34733

 Mulliken charges:
               1
     1  C   -0.100830
     2  C    0.003178
     3  N   -0.218989
     4  H    0.102793
     5  H    0.103020
     6  H    0.110828
 Sum of Mulliken charges =   0.00000

 Dipole moment (field-independent basis, Debye):
    X=             -4.1404    Y=              0.0108    Z=             -0.0168  Tot=              4.1405
 Quadrupole moment (field-independent basis, Debye-Ang):
   XX=            -21.3393   YY=            -17.8182   ZZ=            -17.7486
   XY=              0.0503   XZ=             -0.0483   YZ=             -0.0075

 Normal termination of Gaussian 09 at Wed Aug 26 15:34:29 2020.
