 Gaussian 09, Revision D.01,
 Gaussian 09:  ES64L-G09RevD.01 24-Apr-2013

 --------------------
 #p B2PLYPD3/Def2QZVP
 --------------------

 ------------
 cyanomethane
 ------------
 Symbolic Z-matrix:
 Charge =  0 Multiplicity = 1

                         Standard orientation:
 ---------------------------------------------------------------------
 Center     Atomic      Atomic             Coordinates (Angstroms)
 Number     Number       Type             X           Y           Z
 ---------------------------------------------------------------------
      1          6           0        1.178033   -0.002250   -0.004613
      2          6           0       -0.276019   -0.004719   -0.018376
      3          7           0       -1.439421    0.002955    0.003326
      4          1           0        1.581444    1.031592   -0.210296
      5          1           0        1.620617   -0.733165   -0.672121
      6          1           0        1.461796   -0.277301    0.997068
 ---------------------------------------------------------------------

 SCF Done:  E(RB2PLYPD3) =  -132.532743121     A.U. after   12 cycles
 E2(B2PLYPD3) =    -0.1813953736D+00 E(B2PLYPD3) =    -0.13271413849514D+03

 The electronic state is 1-A.
 Alpha  occ. eigenvalues --  -14.84455 -10.67347 -10.66556  -1.03773  -0.89201
 Alpha  occ. eigenvalues --   -0.59865  -0.53903  -0.53556  -0.44834  -0.38897
 Alpha  occ. eigenvalues --   -0.38718
 Alpha virt. eigenvalues --    0.03688   0.07395   0.07870   0.10174   0.11299
 Alpha virt. eigenvalues --    0.11530   0.15366   0.15762   0.16906   0.20115
 Alpha virt. eigenvalues --    0.20172   0.25397   0.32398   0.34200   0.34823

 Mulliken charges:
               1
     1  C   -0.085803
     2  C    0.001659
     3  N   -0.210476
     4  H    0.097573
     5  H    0.098302
     6  H    0.098746
 Sum of Mulliken charges =   0.00000

 Dipole moment (field-independent basis, Debye):
    X=              4.1436    Y=             -0.0237    Z=              0.0325  Tot=              4.1438
 Quadrupole moment (field-independent basis, Debye-Ang):
   XX=            -21.0025   YY=            -17.6890   ZZ=            -17.9051
   XY=             -0.0262   XZ=             -0.0129   YZ=              0.0133

 Normal termination of Gaussian 09 at Wed Aug 26 14:59:11 2020.
