 Gaussian 09, Revision D.01,
 Gaussian 09:  ES64L-G09RevD.01 24-Apr-2013

 --------------------
 #p B2PLYPD3/Def2QZVP
 --------------------

 ------------
 cyanomethane
 ------------
 Symbolic Z-matrix:
 Charge =  0 Multiplicity = 1

                         Standard orientation:
 ---------------------------------------------------------------------
 Center     Atomic      Atomic             Coordinates (Angstroms)
 Number     Number       Type             X           Y           Z
 ---------------------------------------------------------------------
      1          6           0        1.157813    0.020758    0.007092
      2          6           0       -0.265468   -0.003986   -0.041005
      3          7           0       -1.434923   -0.003224    0.015916
      4          1           0        1.534463    1.032673   -0.115160
      5          1           0        1.635829   -0.683498   -0.803692
      6          1           0        1.520101   -0.427241    1.010916
 ---------------------------------------------------------------------

 SCF Done:  E(RB2PLYPD3) =  -132.525187269     A.U. after   12 cycles
 E2(B2PLYPD3) =    -0.1827061453D+00 E(B2PLYPD3) =    -0.13270789341380D+03

 The electronic state is 1-A.
 Alpha  occ. eigenvalues --  -14.84690 -10.68312 -10.66673  -1.03602  -0.88868
 Alpha  occ. eigenvalues --   -0.59929  -0.54130  -0.51804  -0.44953  -0.38606
 Alpha  occ. eigenvalues --   -0.38197
 Alpha virt. eigenvalues --    0.03405   0.06295   0.07183   0.10048   0.11353
 Alpha virt. eigenvalues --    0.11810   0.15454   0.16102   0.16494   0.20103
 Alpha virt. eigenvalues --    0.20206   0.25957   0.32001   0.33133   0.34573

 Mulliken charges:
               1
     1  C   -0.095624
     2  C    0.006291
     3  N   -0.212153
     4  H    0.107760
     5  H    0.093885
     6  H    0.099840
 Sum of Mulliken charges =   0.00000

 Dipole moment (field-independent basis, Debye):
    X=              4.1156    Y=              0.0032    Z=             -0.0036  Tot=              4.1156
 Quadrupole moment (field-independent basis, Debye-Ang):
   XX=            -21.1082   YY=            -17.7421   ZZ=            -17.9524
   XY=             -0.0826   XZ=              0.0428   YZ=             -0.0438

 Normal termination of Gaussian 09 at Wed Aug 26 14:29:38 2020.
