 Gaussian 09, Revision D.01,
 Gaussian 09:  ES64L-G09RevD.01 24-Apr-2013

 --------------------
 #p B2PLYPD3/Def2QZVP
 --------------------

 ------------
 cyanomethane
 ------------
 Symbolic Z-matrix:
 Charge =  0 Multiplicity = 1

                         Standard orientation:
 ---------------------------------------------------------------------
 Center     Atomic      Atomic             Coordinates (Angstroms)
 Number     Number       Type             X           Y           Z
 ---------------------------------------------------------------------
      1          6           0        1.193026   -0.000311   -0.015930
      2          6           0       -0.282719    0.025537   -0.007440
      3          7           0       -1.439179   -0.015115    0.009065
      4          1           0        1.592403   -0.292065    0.979409
      5          1           0        1.501776    0.966780   -0.214589
      6          1           0        1.518230   -0.720264   -0.688054
 ---------------------------------------------------------------------

 SCF Done:  E(RB2PLYPD3) =  -132.530616153     A.U. after   12 cycles
 E2(B2PLYPD3) =    -0.1804091234D+00 E(B2PLYPD3) =    -0.13271102527622D+03

 The electronic state is 1-A.
 Alpha  occ. eigenvalues --  -14.84243 -10.66471 -10.66332  -1.03944  -0.89692
 Alpha  occ. eigenvalues --   -0.59460  -0.56196  -0.53140  -0.44721  -0.39250
 Alpha  occ. eigenvalues --   -0.38947
 Alpha virt. eigenvalues --    0.03802   0.07874   0.08794   0.10204   0.11013
 Alpha virt. eigenvalues --    0.11492   0.15279   0.16026   0.16489   0.20026
 Alpha virt. eigenvalues --    0.20172   0.25000   0.32577   0.34305   0.35825

 Mulliken charges:
               1
     1  C   -0.079188
     2  C   -0.003386
     3  N   -0.208144
     4  H    0.089129
     5  H    0.100944
     6  H    0.100646
 Sum of Mulliken charges =   0.00000

 Dipole moment (field-independent basis, Debye):
    X=              4.1428    Y=              0.0158    Z=             -0.0064  Tot=              4.1428
 Quadrupole moment (field-independent basis, Debye-Ang):
   XX=            -20.9921   YY=            -17.6032   ZZ=            -17.8434
   XY=             -0.1272   XZ=              0.1344   YZ=              0.0461

 Normal termination of Gaussian 09 at Wed Aug 26 10:46:40 2020.
