 Gaussian 09, Revision D.01,
 Gaussian 09:  ES64L-G09RevD.01 24-Apr-2013

 --------------------
 #p B2PLYPD3/Def2QZVP
 --------------------

 ------------
 cyanomethane
 ------------
 Symbolic Z-matrix:
 Charge =  0 Multiplicity = 1

                         Standard orientation:
 ---------------------------------------------------------------------
 Center     Atomic      Atomic             Coordinates (Angstroms)
 Number     Number       Type             X           Y           Z
 ---------------------------------------------------------------------
      1          6           0       -1.174129   -0.000597   -0.004149
      2          6           0        0.284127    0.014304    0.013816
      3          7           0        1.435794   -0.007744   -0.010325
      4          1           0       -1.609927   -0.659633   -0.762276
      5          1           0       -1.575192    0.990114   -0.167707
      6          1           0       -1.525426   -0.358521    0.944251
 ---------------------------------------------------------------------

 SCF Done:  E(RB2PLYPD3) =  -132.535043233     A.U. after   12 cycles
 E2(B2PLYPD3) =    -0.1802409306D+00 E(B2PLYPD3) =    -0.13271528416373D+03

 The electronic state is 1-A.
 Alpha  occ. eigenvalues --  -14.84219 -10.66896 -10.66289  -1.04270  -0.89273
 Alpha  occ. eigenvalues --   -0.60265  -0.54115  -0.53372  -0.44873  -0.39223
 Alpha  occ. eigenvalues --   -0.39153
 Alpha virt. eigenvalues --    0.03770   0.07685   0.08192   0.10169   0.11423
 Alpha virt. eigenvalues --    0.11563   0.15477   0.16184   0.16995   0.20046
 Alpha virt. eigenvalues --    0.20117   0.25377   0.32812   0.34696   0.34913

 Mulliken charges:
               1
     1  C   -0.073946
     2  C    0.000069
     3  N   -0.204353
     4  H    0.091736
     5  H    0.093313
     6  H    0.093180
 Sum of Mulliken charges =   0.00000

 Dipole moment (field-independent basis, Debye):
    X=             -4.1347    Y=              0.0054    Z=              0.0272  Tot=              4.1348
 Quadrupole moment (field-independent basis, Debye-Ang):
   XX=            -20.8123   YY=            -17.7591   ZZ=            -17.8222
   XY=              0.0630   XZ=              0.0898   YZ=             -0.0205

 Normal termination of Gaussian 09 at Thu Aug 27 00:14:04 2020.
