 Gaussian 09, Revision D.01,
 Gaussian 09:  ES64L-G09RevD.01 24-Apr-2013

 --------------------
 #p B2PLYPD3/Def2QZVP
 --------------------

 ------------
 cyanomethane
 ------------
 Symbolic Z-matrix:
 Charge =  0 Multiplicity = 1

                         Standard orientation:
 ---------------------------------------------------------------------
 Center     Atomic      Atomic             Coordinates (Angstroms)
 Number     Number       Type             X           Y           Z
 ---------------------------------------------------------------------
      1          6           0       -1.183605   -0.014240    0.018210
      2          6           0        0.297392   -0.002022   -0.068777
      3          7           0        1.441238   -0.000779    0.033475
      4          1           0       -1.543758    1.096141    0.029034
      5          1           0       -1.599597   -0.503164    0.855598
      6          1           0       -1.628040   -0.489952   -0.815558
 ---------------------------------------------------------------------

 SCF Done:  E(RB2PLYPD3) =  -132.528249423     A.U. after   12 cycles
 E2(B2PLYPD3) =    -0.1802571669D+00 E(B2PLYPD3) =    -0.13270850658958D+03

 The electronic state is 1-A.
 Alpha  occ. eigenvalues --  -14.84263 -10.67415 -10.66397  -1.04463  -0.88590
 Alpha  occ. eigenvalues --   -0.60411  -0.53632  -0.52381  -0.44941  -0.39502
 Alpha  occ. eigenvalues --   -0.39280
 Alpha virt. eigenvalues --    0.03532   0.07435   0.08222   0.10130   0.11359
 Alpha virt. eigenvalues --    0.11599   0.15277   0.16200   0.17282   0.19958
 Alpha virt. eigenvalues --    0.20097   0.25253   0.32257   0.33605   0.35312

 Mulliken charges:
               1
     1  C   -0.077814
     2  C    0.005017
     3  N   -0.201131
     4  H    0.088837
     5  H    0.095065
     6  H    0.090028
 Sum of Mulliken charges =   0.00000

 Dipole moment (field-independent basis, Debye):
    X=             -4.1118    Y=             -0.0359    Z=             -0.0524  Tot=              4.1123
 Quadrupole moment (field-independent basis, Debye-Ang):
   XX=            -20.7595   YY=            -17.7169   ZZ=            -17.9653
   XY=              0.1437   XZ=             -0.1661   YZ=             -0.0145

 Normal termination of Gaussian 09 at Wed Aug 26 22:32:15 2020.
