 Gaussian 09, Revision D.01,
 Gaussian 09:  ES64L-G09RevD.01 24-Apr-2013

 --------------------
 #p B2PLYPD3/Def2QZVP
 --------------------

 ------------
 cyanomethane
 ------------
 Symbolic Z-matrix:
 Charge =  0 Multiplicity = 1

                         Standard orientation:
 ---------------------------------------------------------------------
 Center     Atomic      Atomic             Coordinates (Angstroms)
 Number     Number       Type             X           Y           Z
 ---------------------------------------------------------------------
      1          6           0       -1.183543    0.035823   -0.003952
      2          6           0        0.297295   -0.033369   -0.055727
      3          7           0        1.437631    0.007828    0.028998
      4          1           0       -1.520149    0.974427   -0.408974
      5          1           0       -1.572647   -0.116413    1.121660
      6          1           0       -1.653132   -0.927533   -0.557602
 ---------------------------------------------------------------------

 SCF Done:  E(RB2PLYPD3) =  -132.518932812     A.U. after   12 cycles
 E2(B2PLYPD3) =    -0.1808568492D+00 E(B2PLYPD3) =    -0.13269978966092D+03

 The electronic state is 1-A.
 Alpha  occ. eigenvalues --  -14.84064 -10.69429 -10.66186  -1.04577  -0.87261
 Alpha  occ. eigenvalues --   -0.58572  -0.53979  -0.50325  -0.44824  -0.39582
 Alpha  occ. eigenvalues --   -0.38897
 Alpha virt. eigenvalues --    0.03123   0.06484   0.07903   0.10140   0.11309
 Alpha virt. eigenvalues --    0.11893   0.15098   0.16021   0.16853   0.19869
 Alpha virt. eigenvalues --    0.20050   0.25154   0.31226   0.32209   0.34749

 Mulliken charges:
               1
     1  C   -0.111030
     2  C    0.003027
     3  N   -0.197007
     4  H    0.114668
     5  H    0.097139
     6  H    0.093204
 Sum of Mulliken charges =   0.00000

 Dipole moment (field-independent basis, Debye):
    X=             -4.0652    Y=             -0.0080    Z=             -0.0244  Tot=              4.0653
 Quadrupole moment (field-independent basis, Debye-Ang):
   XX=            -21.1948   YY=            -17.6655   ZZ=            -17.9814
   XY=              0.0627   XZ=             -0.2127   YZ=             -0.1318

 Normal termination of Gaussian 09 at Wed Aug 26 19:21:07 2020.
