 Gaussian 09, Revision D.01,
 Gaussian 09:  ES64L-G09RevD.01 24-Apr-2013

 --------------------
 #p B2PLYPD3/Def2QZVP
 --------------------

 ------------
 cyanomethane
 ------------
 Symbolic Z-matrix:
 Charge =  0 Multiplicity = 1

                         Standard orientation:
 ---------------------------------------------------------------------
 Center     Atomic      Atomic             Coordinates (Angstroms)
 Number     Number       Type             X           Y           Z
 ---------------------------------------------------------------------
      1          6           0       -1.179847   -0.003508    0.003808
      2          6           0        0.277260    0.012980    0.013322
      3          7           0        1.430083   -0.006189   -0.011698
      4          1           0       -1.580540   -0.540677   -0.869114
      5          1           0       -1.536485    1.023961   -0.032869
      6          1           0       -1.478028   -0.496792    0.881089
 ---------------------------------------------------------------------

 SCF Done:  E(RB2PLYPD3) =  -132.534283255     A.U. after   12 cycles
 E2(B2PLYPD3) =    -0.1802296492D+00 E(B2PLYPD3) =    -0.13271451290467D+03

 The electronic state is 1-A.
 Alpha  occ. eigenvalues --  -14.84078 -10.66823 -10.66122  -1.04129  -0.89542
 Alpha  occ. eigenvalues --   -0.59447  -0.55108  -0.53579  -0.44709  -0.39124
 Alpha  occ. eigenvalues --   -0.39008
 Alpha virt. eigenvalues --    0.03789   0.07778   0.08497   0.10185   0.11339
 Alpha virt. eigenvalues --    0.11536   0.15401   0.15894   0.16536   0.20074
 Alpha virt. eigenvalues --    0.20129   0.25349   0.32791   0.34454   0.35048

 Mulliken charges:
               1
     1  C   -0.086661
     2  C   -0.003207
     3  N   -0.206415
     4  H    0.095828
     5  H    0.098489
     6  H    0.101966
 Sum of Mulliken charges =   0.00000

 Dipole moment (field-independent basis, Debye):
    X=             -4.1202    Y=              0.0027    Z=              0.0204  Tot=              4.1203
 Quadrupole moment (field-independent basis, Debye-Ang):
   XX=            -21.0804   YY=            -17.6724   ZZ=            -17.7299
   XY=              0.0446   XZ=              0.1350   YZ=             -0.0471

 Normal termination of Gaussian 09 at Thu Aug 27 00:09:26 2020.
