 Gaussian 09, Revision D.01,
 Gaussian 09:  ES64L-G09RevD.01 24-Apr-2013

 --------------------
 #p B2PLYPD3/Def2QZVP
 --------------------

 ------------
 cyanomethane
 ------------
 Symbolic Z-matrix:
 Charge =  0 Multiplicity = 1

                         Standard orientation:
 ---------------------------------------------------------------------
 Center     Atomic      Atomic             Coordinates (Angstroms)
 Number     Number       Type             X           Y           Z
 ---------------------------------------------------------------------
      1          6           0        1.179564   -0.006774    0.005380
      2          6           0       -0.279614    0.006815   -0.015614
      3          7           0       -1.428532   -0.003493    0.008828
      4          1           0        1.550944   -0.410912    0.958055
      5          1           0        1.523575    1.050881   -0.117256
      6          1           0        1.525502   -0.615761   -0.841188
 ---------------------------------------------------------------------

 SCF Done:  E(RB2PLYPD3) =  -132.534742454     A.U. after   12 cycles
 E2(B2PLYPD3) =    -0.1802055052D+00 E(B2PLYPD3) =    -0.13271494795915D+03

 The electronic state is 1-A.
 Alpha  occ. eigenvalues --  -14.83952 -10.67643 -10.66009  -1.04268  -0.88884
 Alpha  occ. eigenvalues --   -0.58979  -0.54030  -0.53536  -0.44675  -0.39151
 Alpha  occ. eigenvalues --   -0.39045
 Alpha virt. eigenvalues --    0.03674   0.07811   0.08030   0.10174   0.11499
 Alpha virt. eigenvalues --    0.11597   0.15317   0.15867   0.16438   0.20065
 Alpha virt. eigenvalues --    0.20087   0.25306   0.32623   0.34039   0.34567

 Mulliken charges:
               1
     1  C   -0.098863
     2  C   -0.002837
     3  N   -0.203742
     4  H    0.103000
     5  H    0.100037
     6  H    0.102405
 Sum of Mulliken charges =   0.00000

 Dipole moment (field-independent basis, Debye):
    X=              4.1009    Y=              0.0055    Z=             -0.0137  Tot=              4.1009
 Quadrupole moment (field-independent basis, Debye-Ang):
   XX=            -21.2164   YY=            -17.7124   ZZ=            -17.6871
   XY=             -0.0284   XZ=              0.0681   YZ=              0.0050

 Normal termination of Gaussian 09 at Wed Aug 26 23:53:20 2020.
