 Gaussian 09, Revision D.01,
 Gaussian 09:  ES64L-G09RevD.01 24-Apr-2013

 --------------------
 #p B2PLYPD3/Def2QZVP
 --------------------

 ------------
 cyanomethane
 ------------
 Symbolic Z-matrix:
 Charge =  0 Multiplicity = 1

                         Standard orientation:
 ---------------------------------------------------------------------
 Center     Atomic      Atomic             Coordinates (Angstroms)
 Number     Number       Type             X           Y           Z
 ---------------------------------------------------------------------
      1          6           0        1.180177   -0.003380   -0.005829
      2          6           0       -0.277499   -0.004129   -0.018431
      3          7           0       -1.440797    0.002785    0.007894
      4          1           0        1.568517    1.003078   -0.231215
      5          1           0        1.577674   -0.719987   -0.678977
      6          1           0        1.523325   -0.257529    1.000495
 ---------------------------------------------------------------------

 SCF Done:  E(RB2PLYPD3) =  -132.534141915     A.U. after   12 cycles
 E2(B2PLYPD3) =    -0.1812174516D+00 E(B2PLYPD3) =    -0.13271535936681D+03

 The electronic state is 1-A.
 Alpha  occ. eigenvalues --  -14.84476 -10.67036 -10.66564  -1.03769  -0.89329
 Alpha  occ. eigenvalues --   -0.59996  -0.54495  -0.53402  -0.44846  -0.38967
 Alpha  occ. eigenvalues --   -0.38770
 Alpha virt. eigenvalues --    0.03747   0.07611   0.07936   0.10171   0.11214
 Alpha virt. eigenvalues --    0.11495   0.15394   0.16141   0.16566   0.20089
 Alpha virt. eigenvalues --    0.20168   0.25333   0.32620   0.34258   0.35080

 Mulliken charges:
               1
     1  C   -0.079337
     2  C    0.000639
     3  N   -0.210313
     4  H    0.095891
     5  H    0.098398
     6  H    0.094723
 Sum of Mulliken charges =   0.00000

 Dipole moment (field-independent basis, Debye):
    X=              4.1481    Y=             -0.0106    Z=              0.0068  Tot=              4.1482
 Quadrupole moment (field-independent basis, Debye-Ang):
   XX=            -20.9507   YY=            -17.7365   ZZ=            -17.8478
   XY=              0.0037   XZ=              0.0454   YZ=              0.0357

 Normal termination of Gaussian 09 at Thu Aug 27 00:02:22 2020.
