 Gaussian 09, Revision D.01,
 Gaussian 09:  ES64L-G09RevD.01 24-Apr-2013

 --------------------
 #p B2PLYPD3/Def2QZVP
 --------------------

 ------------
 cyanomethane
 ------------
 Symbolic Z-matrix:
 Charge =  0 Multiplicity = 1

                         Standard orientation:
 ---------------------------------------------------------------------
 Center     Atomic      Atomic             Coordinates (Angstroms)
 Number     Number       Type             X           Y           Z
 ---------------------------------------------------------------------
      1          6           0        1.177788    0.000640   -0.010629
      2          6           0       -0.275195    0.020714    0.000604
      3          7           0       -1.438657   -0.012287   -0.000367
      4          1           0        1.534109    1.016450   -0.035147
      5          1           0        1.575716   -0.579842   -0.815993
      6          1           0        1.545213   -0.478725    0.913860
 ---------------------------------------------------------------------

 SCF Done:  E(RB2PLYPD3) =  -132.533894549     A.U. after   12 cycles
 E2(B2PLYPD3) =    -0.1812382601D+00 E(B2PLYPD3) =    -0.13271513280924D+03

 The electronic state is 1-A.
 Alpha  occ. eigenvalues --  -14.84466 -10.66938 -10.66532  -1.03762  -0.89457
 Alpha  occ. eigenvalues --   -0.60060  -0.54761  -0.53304  -0.44840  -0.38937
 Alpha  occ. eigenvalues --   -0.38725
 Alpha virt. eigenvalues --    0.03762   0.07578   0.07958   0.10134   0.11211
 Alpha virt. eigenvalues --    0.11532   0.15421   0.16052   0.16630   0.20079
 Alpha virt. eigenvalues --    0.20195   0.25431   0.32704   0.34212   0.35158

 Mulliken charges:
               1
     1  C   -0.079104
     2  C    0.000628
     3  N   -0.210709
     4  H    0.098767
     5  H    0.097636
     6  H    0.092782
 Sum of Mulliken charges =   0.00000

 Dipole moment (field-independent basis, Debye):
    X=              4.1446    Y=              0.0030    Z=              0.0098  Tot=              4.1446
 Quadrupole moment (field-independent basis, Debye-Ang):
   XX=            -20.9667   YY=            -17.6857   ZZ=            -17.8770
   XY=             -0.1256   XZ=              0.0045   YZ=              0.0327

 Normal termination of Gaussian 09 at Wed Aug 26 13:57:42 2020.
