 Gaussian 09, Revision D.01,
 Gaussian 09:  ES64L-G09RevD.01 24-Apr-2013

 --------------------
 #p B2PLYPD3/Def2QZVP
 --------------------

 ------------
 cyanomethane
 ------------
 Symbolic Z-matrix:
 Charge =  0 Multiplicity = 1

                         Standard orientation:
 ---------------------------------------------------------------------
 Center     Atomic      Atomic             Coordinates (Angstroms)
 Number     Number       Type             X           Y           Z
 ---------------------------------------------------------------------
      1          6           0        1.179676    0.004427    0.004650
      2          6           0       -0.277310    0.005833   -0.020049
      3          7           0       -1.446592   -0.005783    0.010218
      4          1           0        1.540649    1.041332   -0.017211
      5          1           0        1.583703   -0.553965   -0.840775
      6          1           0        1.587595   -0.508443    0.878852
 ---------------------------------------------------------------------

 SCF Done:  E(RB2PLYPD3) =  -132.533034368     A.U. after   12 cycles
 E2(B2PLYPD3) =    -0.1819205708D+00 E(B2PLYPD3) =    -0.13271495493847D+03

 The electronic state is 1-A.
 Alpha  occ. eigenvalues --  -14.84710 -10.67308 -10.66812  -1.03562  -0.89119
 Alpha  occ. eigenvalues --   -0.60210  -0.54179  -0.53039  -0.44924  -0.38798
 Alpha  occ. eigenvalues --   -0.38666
 Alpha virt. eigenvalues --    0.03697   0.07324   0.07622   0.10131   0.11180
 Alpha virt. eigenvalues --    0.11479   0.15350   0.16255   0.16599   0.20091
 Alpha virt. eigenvalues --    0.20206   0.25368   0.32494   0.34431   0.34678

 Mulliken charges:
               1
     1  C   -0.077525
     2  C    0.002833
     3  N   -0.212299
     4  H    0.098871
     5  H    0.093676
     6  H    0.094444
 Sum of Mulliken charges =   0.00000

 Dipole moment (field-independent basis, Debye):
    X=              4.1580    Y=             -0.0149    Z=             -0.0121  Tot=              4.1580
 Quadrupole moment (field-independent basis, Debye-Ang):
   XX=            -20.9023   YY=            -17.7103   ZZ=            -17.9857
   XY=             -0.1295   XZ=              0.0614   YZ=              0.0010

 Normal termination of Gaussian 09 at Wed Aug 26 14:35:38 2020.
