 Gaussian 09, Revision D.01,
 Gaussian 09:  ES64L-G09RevD.01 24-Apr-2013

 --------------------
 #p B2PLYPD3/Def2QZVP
 --------------------

 ------------
 cyanomethane
 ------------
 Symbolic Z-matrix:
 Charge =  0 Multiplicity = 1

                         Standard orientation:
 ---------------------------------------------------------------------
 Center     Atomic      Atomic             Coordinates (Angstroms)
 Number     Number       Type             X           Y           Z
 ---------------------------------------------------------------------
      1          6           0       -1.169660    0.001811   -0.001851
      2          6           0        0.281697   -0.006799   -0.011228
      3          7           0        1.428423    0.003256    0.001770
      4          1           0       -1.565581    1.043008   -0.160522
      5          1           0       -1.502710   -0.357676    1.000354
      6          1           0       -1.602889   -0.678196   -0.773744
 ---------------------------------------------------------------------

 SCF Done:  E(RB2PLYPD3) =  -132.533799562     A.U. after   12 cycles
 E2(B2PLYPD3) =    -0.1802110770D+00 E(B2PLYPD3) =    -0.13271401063850D+03

 The electronic state is 1-A.
 Alpha  occ. eigenvalues --  -14.83981 -10.67916 -10.66030  -1.04445  -0.88652
 Alpha  occ. eigenvalues --   -0.59435  -0.53269  -0.53230  -0.44779  -0.39190
 Alpha  occ. eigenvalues --   -0.39094
 Alpha virt. eigenvalues --    0.03614   0.07549   0.07739   0.10178   0.11623
 Alpha virt. eigenvalues --    0.11731   0.15392   0.16099   0.16677   0.20044
 Alpha virt. eigenvalues --    0.20069   0.25457   0.32599   0.33983   0.34350

 Mulliken charges:
               1
     1  C   -0.095183
     2  C   -0.000788
     3  N   -0.201357
     4  H    0.099378
     5  H    0.099316
     6  H    0.098634
 Sum of Mulliken charges =   0.00000

 Dipole moment (field-independent basis, Debye):
    X=             -4.1004    Y=             -0.0109    Z=              0.0099  Tot=              4.1004
 Quadrupole moment (field-independent basis, Debye-Ang):
   XX=            -21.0772   YY=            -17.7212   ZZ=            -17.7874
   XY=             -0.0020   XZ=              0.0352   YZ=              0.0017

 Normal termination of Gaussian 09 at Wed Aug 26 10:24:09 2020.
