 Gaussian 09, Revision D.01,
 Gaussian 09:  ES64L-G09RevD.01 24-Apr-2013

 --------------------
 #p B2PLYPD3/Def2QZVP
 --------------------

 ------------
 cyanomethane
 ------------
 Symbolic Z-matrix:
 Charge =  0 Multiplicity = 1

                         Standard orientation:
 ---------------------------------------------------------------------
 Center     Atomic      Atomic             Coordinates (Angstroms)
 Number     Number       Type             X           Y           Z
 ---------------------------------------------------------------------
      1          6           0        1.147236    0.026659   -0.032439
      2          6           0       -0.282680   -0.026955    0.004859
      3          7           0       -1.428783    0.002586    0.007000
      4          1           0        1.687104   -0.055248    1.035610
      5          1           0        1.468383    0.918250   -0.414528
      6          1           0        1.658657   -0.879325   -0.504596
 ---------------------------------------------------------------------

 SCF Done:  E(RB2PLYPD3) =  -132.520387103     A.U. after   12 cycles
 E2(B2PLYPD3) =    -0.1806110055D+00 E(B2PLYPD3) =    -0.13270099810885D+03

 The electronic state is 1-A.
 Alpha  occ. eigenvalues --  -14.84204 -10.67668 -10.66184  -1.04687  -0.89070
 Alpha  occ. eigenvalues --   -0.60963  -0.55313  -0.50284  -0.45040  -0.39554
 Alpha  occ. eigenvalues --   -0.38631
 Alpha virt. eigenvalues --    0.03447   0.06339   0.07917   0.10135   0.11426
 Alpha virt. eigenvalues --    0.12291   0.15525   0.16684   0.17362   0.19892
 Alpha virt. eigenvalues --    0.20204   0.25930   0.31789   0.33081   0.35790

 Mulliken charges:
               1
     1  C   -0.075177
     2  C    0.004927
     3  N   -0.200025
     4  H    0.075531
     5  H    0.104704
     6  H    0.090038
 Sum of Mulliken charges =   0.00000

 Dipole moment (field-independent basis, Debye):
    X=              4.1074    Y=             -0.0056    Z=             -0.0016  Tot=              4.1074
 Quadrupole moment (field-independent basis, Debye-Ang):
   XX=            -20.6542   YY=            -17.6438   ZZ=            -18.1505
   XY=             -0.1462   XZ=              0.1779   YZ=             -0.0940

 Normal termination of Gaussian 09 at Wed Aug 26 19:40:55 2020.
