 Gaussian 09, Revision D.01,
 Gaussian 09:  ES64L-G09RevD.01 24-Apr-2013

 --------------------
 #p B2PLYPD3/Def2QZVP
 --------------------

 ------------
 cyanomethane
 ------------
 Symbolic Z-matrix:
 Charge =  0 Multiplicity = 1

                         Standard orientation:
 ---------------------------------------------------------------------
 Center     Atomic      Atomic             Coordinates (Angstroms)
 Number     Number       Type             X           Y           Z
 ---------------------------------------------------------------------
      1          6           0        1.175167    0.012336   -0.012622
      2          6           0       -0.283017    0.005773   -0.063148
      3          7           0       -1.423809    0.003896    0.039531
      4          1           0        1.583509   -0.267809    0.939519
      5          1           0        1.628436    0.886353   -0.195613
      6          1           0        1.401815   -0.754476   -0.566005
 ---------------------------------------------------------------------

 SCF Done:  E(RB2PLYPD3) =  -132.513630401     A.U. after   12 cycles
 E2(B2PLYPD3) =    -0.1792553010D+00 E(B2PLYPD3) =    -0.13269288570186D+03

 The electronic state is 1-A.
 Alpha  occ. eigenvalues --  -14.83982 -10.66002 -10.64727  -1.04570  -0.91138
 Alpha  occ. eigenvalues --   -0.61300  -0.57537  -0.52724  -0.44822  -0.39710
 Alpha  occ. eigenvalues --   -0.39112
 Alpha virt. eigenvalues --    0.03824   0.08099   0.09541   0.10145   0.11014
 Alpha virt. eigenvalues --    0.11828   0.15535   0.16039   0.17600   0.19927
 Alpha virt. eigenvalues --    0.20243   0.25540   0.33324   0.34535   0.36793

 Mulliken charges:
               1
     1  C   -0.061933
     2  C    0.004003
     3  N   -0.202692
     4  H    0.073383
     5  H    0.090822
     6  H    0.096417
 Sum of Mulliken charges =   0.00000

 Dipole moment (field-independent basis, Debye):
    X=              4.1259    Y=             -0.0459    Z=             -0.0260  Tot=              4.1263
 Quadrupole moment (field-independent basis, Debye-Ang):
   XX=            -20.6052   YY=            -17.4583   ZZ=            -17.9201
   XY=              0.0664   XZ=              0.4017   YZ=              0.0735

 Normal termination of Gaussian 09 at Wed Aug 26 22:49:56 2020.
