 Gaussian 09, Revision D.01,
 Gaussian 09:  ES64L-G09RevD.01 24-Apr-2013

 --------------------
 #p B2PLYPD3/Def2QZVP
 --------------------

 ------------
 cyanomethane
 ------------
 Symbolic Z-matrix:
 Charge =  0 Multiplicity = 1

                         Standard orientation:
 ---------------------------------------------------------------------
 Center     Atomic      Atomic             Coordinates (Angstroms)
 Number     Number       Type             X           Y           Z
 ---------------------------------------------------------------------
      1          6           0        1.173469   -0.018819    0.014079
      2          6           0       -0.282446    0.041226    0.011413
      3          7           0       -1.443541   -0.017750   -0.007640
      4          1           0        1.610879    1.025569   -0.191182
      5          1           0        1.569991   -0.659244   -0.807906
      6          1           0        1.577775   -0.376516    0.899614
 ---------------------------------------------------------------------

 SCF Done:  E(RB2PLYPD3) =  -132.529381485     A.U. after   12 cycles
 E2(B2PLYPD3) =    -0.1814929840D+00 E(B2PLYPD3) =    -0.13271087446916D+03

 The electronic state is 1-A.
 Alpha  occ. eigenvalues --  -14.84615 -10.67446 -10.66701  -1.03912  -0.88941
 Alpha  occ. eigenvalues --   -0.60606  -0.54146  -0.52224  -0.44998  -0.39088
 Alpha  occ. eigenvalues --   -0.38750
 Alpha virt. eigenvalues --    0.03609   0.07030   0.07771   0.10078   0.11299
 Alpha virt. eigenvalues --    0.11598   0.15458   0.16265   0.16971   0.20051
 Alpha virt. eigenvalues --    0.20151   0.25489   0.32214   0.33822   0.35081

 Mulliken charges:
               1
     1  C   -0.076509
     2  C    0.005252
     3  N   -0.208297
     4  H    0.087873
     5  H    0.092414
     6  H    0.099268
 Sum of Mulliken charges =   0.00000

 Dipole moment (field-independent basis, Debye):
    X=              4.1334    Y=              0.0024    Z=              0.0117  Tot=              4.1335
 Quadrupole moment (field-independent basis, Debye-Ang):
   XX=            -20.8148   YY=            -17.8587   ZZ=            -17.8802
   XY=             -0.1128   XZ=             -0.0493   YZ=             -0.0436

 Normal termination of Gaussian 09 at Wed Aug 26 14:31:06 2020.
