 Gaussian 09, Revision D.01,
 Gaussian 09:  ES64L-G09RevD.01 24-Apr-2013

 --------------------
 #p B2PLYPD3/Def2QZVP
 --------------------

 ------------
 cyanomethane
 ------------
 Symbolic Z-matrix:
 Charge =  0 Multiplicity = 1

                         Standard orientation:
 ---------------------------------------------------------------------
 Center     Atomic      Atomic             Coordinates (Angstroms)
 Number     Number       Type             X           Y           Z
 ---------------------------------------------------------------------
      1          6           0        1.175045   -0.003987   -0.005663
      2          6           0       -0.278017    0.001768   -0.006075
      3          7           0       -1.438119   -0.000394    0.002647
      4          1           0        1.565181    1.010536   -0.118608
      5          1           0        1.573978   -0.619242   -0.753095
      6          1           0        1.545507   -0.375220    0.923602
 ---------------------------------------------------------------------

 SCF Done:  E(RB2PLYPD3) =  -132.533902781     A.U. after   11 cycles
 E2(B2PLYPD3) =    -0.1807242284D+00 E(B2PLYPD3) =    -0.13271462700936D+03

 The electronic state is 1-A.
 Alpha  occ. eigenvalues --  -14.84408 -10.66491 -10.66428  -1.03944  -0.89743
 Alpha  occ. eigenvalues --   -0.60557  -0.54537  -0.53783  -0.44880  -0.39062
 Alpha  occ. eigenvalues --   -0.38928
 Alpha virt. eigenvalues --    0.03843   0.07831   0.08063   0.10171   0.11311
 Alpha virt. eigenvalues --    0.11481   0.15501   0.16326   0.16691   0.20096
 Alpha virt. eigenvalues --    0.20146   0.25423   0.32821   0.34666   0.35270

 Mulliken charges:
               1
     1  C   -0.068205
     2  C    0.000940
     3  N   -0.208989
     4  H    0.091981
     5  H    0.093623
     6  H    0.090650
 Sum of Mulliken charges =   0.00000

 Dipole moment (field-independent basis, Debye):
    X=              4.1523    Y=             -0.0137    Z=              0.0105  Tot=              4.1523
 Quadrupole moment (field-independent basis, Debye-Ang):
   XX=            -20.8072   YY=            -17.7213   ZZ=            -17.8496
   XY=             -0.0336   XZ=              0.0306   YZ=              0.0264

 Normal termination of Gaussian 09 at Thu Aug 27 00:08:19 2020.
