 Gaussian 09, Revision D.01,
 Gaussian 09:  ES64L-G09RevD.01 24-Apr-2013

 --------------------
 #p B2PLYPD3/Def2QZVP
 --------------------

 ------------
 cyanomethane
 ------------
 Symbolic Z-matrix:
 Charge =  0 Multiplicity = 1

                         Standard orientation:
 ---------------------------------------------------------------------
 Center     Atomic      Atomic             Coordinates (Angstroms)
 Number     Number       Type             X           Y           Z
 ---------------------------------------------------------------------
      1          6           0       -1.181162    0.002447   -0.001432
      2          6           0        0.285631   -0.005885   -0.012871
      3          7           0        1.435849   -0.001176    0.003622
      4          1           0       -1.534892    0.889728   -0.483614
      5          1           0       -1.512620    0.012418    1.021804
      6          1           0       -1.630242   -0.873285   -0.477729
 ---------------------------------------------------------------------

 SCF Done:  E(RB2PLYPD3) =  -132.535471221     A.U. after   12 cycles
 E2(B2PLYPD3) =    -0.1799977182D+00 E(B2PLYPD3) =    -0.13271546893924D+03

 The electronic state is 1-A.
 Alpha  occ. eigenvalues --  -14.84112 -10.66898 -10.66209  -1.04284  -0.89246
 Alpha  occ. eigenvalues --   -0.59843  -0.54299  -0.53607  -0.44792  -0.39289
 Alpha  occ. eigenvalues --   -0.39201
 Alpha virt. eigenvalues --    0.03804   0.07923   0.08303   0.10228   0.11389
 Alpha virt. eigenvalues --    0.11521   0.15374   0.16161   0.16793   0.20047
 Alpha virt. eigenvalues --    0.20089   0.25178   0.32691   0.34711   0.35039

 Mulliken charges:
               1
     1  C   -0.078521
     2  C   -0.002003
     3  N   -0.203926
     4  H    0.096387
     5  H    0.094821
     6  H    0.093242
 Sum of Mulliken charges =   0.00000

 Dipole moment (field-independent basis, Debye):
    X=             -4.1349    Y=              0.0096    Z=              0.0112  Tot=              4.1349
 Quadrupole moment (field-independent basis, Debye-Ang):
   XX=            -20.8930   YY=            -17.7248   ZZ=            -17.7927
   XY=              0.0582   XZ=             -0.0038   YZ=             -0.0206

 Normal termination of Gaussian 09 at Wed Aug 26 23:27:58 2020.
