 Gaussian 09, Revision D.01,
 Gaussian 09:  ES64L-G09RevD.01 24-Apr-2013

 --------------------
 #p B2PLYPD3/Def2QZVP
 --------------------

 ------------
 cyanomethane
 ------------
 Symbolic Z-matrix:
 Charge =  0 Multiplicity = 1

                         Standard orientation:
 ---------------------------------------------------------------------
 Center     Atomic      Atomic             Coordinates (Angstroms)
 Number     Number       Type             X           Y           Z
 ---------------------------------------------------------------------
      1          6           0        1.168164    0.012869   -0.003200
      2          6           0       -0.285202   -0.027163    0.010965
      3          7           0       -1.427341    0.011939   -0.009984
      4          1           0        1.583662    0.892218   -0.487858
      5          1           0        1.608038   -0.882217   -0.505643
      6          1           0        1.501912   -0.007812    1.016798
 ---------------------------------------------------------------------

 SCF Done:  E(RB2PLYPD3) =  -132.534776451     A.U. after   12 cycles
 E2(B2PLYPD3) =    -0.1795910769D+00 E(B2PLYPD3) =    -0.13271436752830D+03

 The electronic state is 1-A.
 Alpha  occ. eigenvalues --  -14.83930 -10.67089 -10.65965  -1.04637  -0.89132
 Alpha  occ. eigenvalues --   -0.60055  -0.54055  -0.53139  -0.44824  -0.39404
 Alpha  occ. eigenvalues --   -0.39289
 Alpha virt. eigenvalues --    0.03741   0.07679   0.08280   0.10164   0.11598
 Alpha virt. eigenvalues --    0.11693   0.15509   0.16075   0.17121   0.20026
 Alpha virt. eigenvalues --    0.20063   0.25521   0.32825   0.34478   0.34904

 Mulliken charges:
               1
     1  C   -0.080250
     2  C   -0.001391
     3  N   -0.199671
     4  H    0.096062
     5  H    0.090354
     6  H    0.094896
 Sum of Mulliken charges =   0.00000

 Dipole moment (field-independent basis, Debye):
    X=              4.1078    Y=             -0.0165    Z=              0.0333  Tot=              4.1080
 Quadrupole moment (field-independent basis, Debye-Ang):
   XX=            -20.8712   YY=            -17.7423   ZZ=            -17.7656
   XY=              0.0532   XZ=             -0.0938   YZ=             -0.0276

 Normal termination of Gaussian 09 at Wed Aug 26 11:57:48 2020.
