 Gaussian 09, Revision D.01,
 Gaussian 09:  ES64L-G09RevD.01 24-Apr-2013

 --------------------
 #p B2PLYPD3/Def2QZVP
 --------------------

 ------------
 cyanomethane
 ------------
 Symbolic Z-matrix:
 Charge =  0 Multiplicity = 1

                         Standard orientation:
 ---------------------------------------------------------------------
 Center     Atomic      Atomic             Coordinates (Angstroms)
 Number     Number       Type             X           Y           Z
 ---------------------------------------------------------------------
      1          6           0       -1.178527    0.003869    0.001405
      2          6           0        0.284404   -0.000320   -0.014869
      3          7           0        1.434921   -0.000391    0.003756
      4          1           0       -1.568471    1.018728   -0.182973
      5          1           0       -1.510077   -0.342429    0.996940
      6          1           0       -1.601158   -0.694856   -0.759481
 ---------------------------------------------------------------------

 SCF Done:  E(RB2PLYPD3) =  -132.534787695     A.U. after   12 cycles
 E2(B2PLYPD3) =    -0.1803826485D+00 E(B2PLYPD3) =    -0.13271517034338D+03

 The electronic state is 1-A.
 Alpha  occ. eigenvalues --  -14.84111 -10.67730 -10.66200  -1.04269  -0.88680
 Alpha  occ. eigenvalues --   -0.59420  -0.53676  -0.53179  -0.44784  -0.39187
 Alpha  occ. eigenvalues --   -0.39097
 Alpha virt. eigenvalues --    0.03660   0.07675   0.07870   0.10198   0.11476
 Alpha virt. eigenvalues --    0.11593   0.15320   0.16186   0.16574   0.20048
 Alpha virt. eigenvalues --    0.20077   0.25250   0.32520   0.34211   0.34536

 Mulliken charges:
               1
     1  C   -0.090975
     2  C   -0.001222
     3  N   -0.203337
     4  H    0.099599
     5  H    0.099177
     6  H    0.096758
 Sum of Mulliken charges =   0.00000

 Dipole moment (field-independent basis, Debye):
    X=             -4.1177    Y=             -0.0036    Z=              0.0053  Tot=              4.1177
 Quadrupole moment (field-independent basis, Debye-Ang):
   XX=            -21.0382   YY=            -17.7378   ZZ=            -17.8004
   XY=              0.0160   XZ=              0.0222   YZ=             -0.0138

 Normal termination of Gaussian 09 at Wed Aug 26 16:23:11 2020.
