 Gaussian 09, Revision D.01,
 Gaussian 09:  ES64L-G09RevD.01 24-Apr-2013

 --------------------
 #p B2PLYPD3/Def2QZVP
 --------------------

 ------------
 cyanomethane
 ------------
 Symbolic Z-matrix:
 Charge =  0 Multiplicity = 1

                         Standard orientation:
 ---------------------------------------------------------------------
 Center     Atomic      Atomic             Coordinates (Angstroms)
 Number     Number       Type             X           Y           Z
 ---------------------------------------------------------------------
      1          6           0       -1.173475   -0.000603   -0.002140
      2          6           0        0.273469    0.020114    0.027824
      3          7           0        1.440066   -0.012985   -0.015035
      4          1           0       -1.528330    1.036434   -0.156007
      5          1           0       -1.563947   -0.409585    0.932177
      6          1           0       -1.588151   -0.653020   -0.825034
 ---------------------------------------------------------------------

 SCF Done:  E(RB2PLYPD3) =  -132.531917826     A.U. after   12 cycles
 E2(B2PLYPD3) =    -0.1819600731D+00 E(B2PLYPD3) =    -0.13271387789915D+03

 The electronic state is 1-A.
 Alpha  occ. eigenvalues --  -14.84612 -10.67661 -10.66663  -1.03642  -0.88993
 Alpha  occ. eigenvalues --   -0.59868  -0.54086  -0.52849  -0.44893  -0.38729
 Alpha  occ. eigenvalues --   -0.38606
 Alpha virt. eigenvalues --    0.03578   0.07024   0.07672   0.10091   0.11269
 Alpha virt. eigenvalues --    0.11548   0.15402   0.16017   0.16602   0.20100
 Alpha virt. eigenvalues --    0.20194   0.25581   0.32556   0.33998   0.34477

 Mulliken charges:
               1
     1  C   -0.087277
     2  C    0.002741
     3  N   -0.211407
     4  H    0.100391
     5  H    0.098804
     6  H    0.096747
 Sum of Mulliken charges =   0.00000

 Dipole moment (field-independent basis, Debye):
    X=             -4.1337    Y=              0.0080    Z=              0.0249  Tot=              4.1338
 Quadrupole moment (field-independent basis, Debye-Ang):
   XX=            -21.0315   YY=            -17.7477   ZZ=            -17.8946
   XY=              0.1402   XZ=              0.0828   YZ=             -0.0376

 Normal termination of Gaussian 09 at Wed Aug 26 12:33:41 2020.
