 Gaussian 09, Revision D.01,
 Gaussian 09:  ES64L-G09RevD.01 24-Apr-2013

 --------------------
 #p B2PLYPD3/Def2QZVP
 --------------------

 ------------
 cyanomethane
 ------------
 Symbolic Z-matrix:
 Charge =  0 Multiplicity = 1

                         Standard orientation:
 ---------------------------------------------------------------------
 Center     Atomic      Atomic             Coordinates (Angstroms)
 Number     Number       Type             X           Y           Z
 ---------------------------------------------------------------------
      1          6           0       -1.166476   -0.017925   -0.006292
      2          6           0        0.273833    0.025987   -0.009091
      3          7           0        1.429606   -0.006229    0.002688
      4          1           0       -1.521239   -0.763161   -0.662009
      5          1           0       -1.632048    0.975174   -0.289370
      6          1           0       -1.498097   -0.216786    1.024859
 ---------------------------------------------------------------------

 SCF Done:  E(RB2PLYPD3) =  -132.532969204     A.U. after   12 cycles
 E2(B2PLYPD3) =    -0.1807387002D+00 E(B2PLYPD3) =    -0.13271370790437D+03

 The electronic state is 1-A.
 Alpha  occ. eigenvalues --  -14.84233 -10.67144 -10.66249  -1.04102  -0.89404
 Alpha  occ. eigenvalues --   -0.60051  -0.54793  -0.52836  -0.44829  -0.39062
 Alpha  occ. eigenvalues --   -0.38782
 Alpha virt. eigenvalues --    0.03726   0.07353   0.07994   0.10147   0.11415
 Alpha virt. eigenvalues --    0.11705   0.15479   0.16135   0.16629   0.20071
 Alpha virt. eigenvalues --    0.20137   0.25688   0.32568   0.34045   0.35128

 Mulliken charges:
               1
     1  C   -0.083992
     2  C    0.000707
     3  N   -0.207197
     4  H    0.102329
     5  H    0.091137
     6  H    0.097016
 Sum of Mulliken charges =   0.00000

 Dipole moment (field-independent basis, Debye):
    X=             -4.1200    Y=             -0.0005    Z=              0.0092  Tot=              4.1201
 Quadrupole moment (field-independent basis, Debye-Ang):
   XX=            -20.9905   YY=            -17.7764   ZZ=            -17.7468
   XY=             -0.0434   XZ=              0.0003   YZ=              0.0710

 Normal termination of Gaussian 09 at Wed Aug 26 14:19:02 2020.
