 Gaussian 09, Revision D.01,
 Gaussian 09:  ES64L-G09RevD.01 24-Apr-2013

 --------------------
 #p B2PLYPD3/Def2QZVP
 --------------------

 ------------
 cyanomethane
 ------------
 Symbolic Z-matrix:
 Charge =  0 Multiplicity = 1

                         Standard orientation:
 ---------------------------------------------------------------------
 Center     Atomic      Atomic             Coordinates (Angstroms)
 Number     Number       Type             X           Y           Z
 ---------------------------------------------------------------------
      1          6           0        1.177317    0.003547    0.009026
      2          6           0       -0.269150    0.002294   -0.016863
      3          7           0       -1.432383   -0.004419    0.004389
      4          1           0        1.488792    1.017011   -0.030299
      5          1           0        1.587173   -0.542257   -0.840943
      6          1           0        1.501718   -0.478867    0.887546
 ---------------------------------------------------------------------

 SCF Done:  E(RB2PLYPD3) =  -132.533463761     A.U. after   11 cycles
 E2(B2PLYPD3) =    -0.1809560917D+00 E(B2PLYPD3) =    -0.13271441985311D+03

 The electronic state is 1-A.
 Alpha  occ. eigenvalues --  -14.84336 -10.66428 -10.66356  -1.03749  -0.90012
 Alpha  occ. eigenvalues --   -0.59843  -0.55378  -0.54034  -0.44745  -0.38850
 Alpha  occ. eigenvalues --   -0.38745
 Alpha virt. eigenvalues --    0.03864   0.07803   0.08246   0.10168   0.11264
 Alpha virt. eigenvalues --    0.11435   0.15435   0.16042   0.16277   0.20134
 Alpha virt. eigenvalues --    0.20178   0.25524   0.32808   0.34699   0.35131

 Mulliken charges:
               1
     1  C   -0.080409
     2  C   -0.001383
     3  N   -0.212122
     4  H    0.100526
     5  H    0.093787
     6  H    0.099602
 Sum of Mulliken charges =   0.00000

 Dipole moment (field-independent basis, Debye):
    X=              4.1401    Y=              0.0008    Z=             -0.0005  Tot=              4.1401
 Quadrupole moment (field-independent basis, Debye-Ang):
   XX=            -21.0538   YY=            -17.6528   ZZ=            -17.7744
   XY=             -0.0895   XZ=             -0.0277   YZ=             -0.0351

 Normal termination of Gaussian 09 at Thu Aug 27 00:08:05 2020.
