 Gaussian 09, Revision D.01,
 Gaussian 09:  ES64L-G09RevD.01 24-Apr-2013

 --------------------
 #p B2PLYPD3/Def2QZVP
 --------------------

 ------------
 cyanomethane
 ------------
 Symbolic Z-matrix:
 Charge =  0 Multiplicity = 1

                         Standard orientation:
 ---------------------------------------------------------------------
 Center     Atomic      Atomic             Coordinates (Angstroms)
 Number     Number       Type             X           Y           Z
 ---------------------------------------------------------------------
      1          6           0        1.171880   -0.011951    0.009806
      2          6           0       -0.276101    0.042515   -0.000243
      3          7           0       -1.441312   -0.021026   -0.001773
      4          1           0        1.572235    1.014453   -0.129667
      5          1           0        1.580562   -0.626503   -0.830094
      6          1           0        1.561712   -0.424153    0.914790
 ---------------------------------------------------------------------

 SCF Done:  E(RB2PLYPD3) =  -132.532305880     A.U. after   11 cycles
 E2(B2PLYPD3) =    -0.1817803338D+00 E(B2PLYPD3) =    -0.13271408621333D+03

 The electronic state is 1-A.
 Alpha  occ. eigenvalues --  -14.84654 -10.67340 -10.66705  -1.03719  -0.89123
 Alpha  occ. eigenvalues --   -0.60346  -0.54050  -0.52915  -0.44957  -0.38849
 Alpha  occ. eigenvalues --   -0.38667
 Alpha virt. eigenvalues --    0.03647   0.07198   0.07585   0.10063   0.11318
 Alpha virt. eigenvalues --    0.11516   0.15485   0.16081   0.16857   0.20070
 Alpha virt. eigenvalues --    0.20196   0.25625   0.32577   0.34043   0.34916

 Mulliken charges:
               1
     1  C   -0.078442
     2  C    0.003773
     3  N   -0.210714
     4  H    0.093080
     5  H    0.093420
     6  H    0.098884
 Sum of Mulliken charges =   0.00000

 Dipole moment (field-independent basis, Debye):
    X=              4.1382    Y=              0.0209    Z=              0.0038  Tot=              4.1383
 Quadrupole moment (field-independent basis, Debye-Ang):
   XX=            -20.8941   YY=            -17.8248   ZZ=            -17.8615
   XY=             -0.1299   XZ=             -0.0268   YZ=             -0.0402

 Normal termination of Gaussian 09 at Wed Aug 26 12:18:42 2020.
