 Gaussian 09, Revision D.01,
 Gaussian 09:  ES64L-G09RevD.01 24-Apr-2013

 --------------------
 #p B2PLYPD3/Def2QZVP
 --------------------

 ------------
 cyanomethane
 ------------
 Symbolic Z-matrix:
 Charge =  0 Multiplicity = 1

                         Standard orientation:
 ---------------------------------------------------------------------
 Center     Atomic      Atomic             Coordinates (Angstroms)
 Number     Number       Type             X           Y           Z
 ---------------------------------------------------------------------
      1          6           0       -1.181160   -0.007472    0.004568
      2          6           0        0.280780    0.017701   -0.001798
      3          7           0        1.426387   -0.006431    0.000700
      4          1           0       -1.519904   -0.378028    0.939127
      5          1           0       -1.507493   -0.646384   -0.800167
      6          1           0       -1.555035    1.008049   -0.160480
 ---------------------------------------------------------------------

 SCF Done:  E(RB2PLYPD3) =  -132.535860017     A.U. after   11 cycles
 E2(B2PLYPD3) =    -0.1795396991D+00 E(B2PLYPD3) =    -0.13271539971587D+03

 The electronic state is 1-A.
 Alpha  occ. eigenvalues --  -14.83843 -10.66804 -10.65888  -1.04394  -0.89448
 Alpha  occ. eigenvalues --   -0.59244  -0.54731  -0.54049  -0.44651  -0.39308
 Alpha  occ. eigenvalues --   -0.39217
 Alpha virt. eigenvalues --    0.03832   0.08238   0.08421   0.10211   0.11458
 Alpha virt. eigenvalues --    0.11543   0.15380   0.16119   0.16304   0.20056
 Alpha virt. eigenvalues --    0.20074   0.25263   0.32838   0.34579   0.35030

 Mulliken charges:
               1
     1  C   -0.088417
     2  C   -0.005340
     3  N   -0.202730
     4  H    0.100567
     5  H    0.099300
     6  H    0.096620
 Sum of Mulliken charges =   0.00000

 Dipole moment (field-independent basis, Debye):
    X=             -4.1096    Y=              0.0040    Z=             -0.0017  Tot=              4.1096
 Quadrupole moment (field-independent basis, Debye-Ang):
   XX=            -21.1062   YY=            -17.6732   ZZ=            -17.6595
   XY=              0.0116   XZ=             -0.0059   YZ=             -0.0060

 Normal termination of Gaussian 09 at Wed Aug 26 08:32:43 2020.
