 Gaussian 09, Revision D.01,
 Gaussian 09:  ES64L-G09RevD.01 24-Apr-2013

 --------------------
 #p B2PLYPD3/Def2QZVP
 --------------------

 ------------
 cyanomethane
 ------------
 Symbolic Z-matrix:
 Charge =  0 Multiplicity = 1

                         Standard orientation:
 ---------------------------------------------------------------------
 Center     Atomic      Atomic             Coordinates (Angstroms)
 Number     Number       Type             X           Y           Z
 ---------------------------------------------------------------------
      1          6           0        1.178404   -0.008778   -0.012093
      2          6           0       -0.286969    0.015686    0.018816
      3          7           0       -1.437927   -0.011265   -0.011193
      4          1           0        1.519473    1.036805   -0.022138
      5          1           0        1.632414   -0.528954   -0.819679
      6          1           0        1.564990   -0.470441    0.879833
 ---------------------------------------------------------------------

 SCF Done:  E(RB2PLYPD3) =  -132.533705997     A.U. after   12 cycles
 E2(B2PLYPD3) =    -0.1802136037D+00 E(B2PLYPD3) =    -0.13271391960094D+03

 The electronic state is 1-A.
 Alpha  occ. eigenvalues --  -14.84225 -10.66870 -10.66332  -1.04284  -0.89225
 Alpha  occ. eigenvalues --   -0.60443  -0.53745  -0.53574  -0.44875  -0.39290
 Alpha  occ. eigenvalues --   -0.39174
 Alpha virt. eigenvalues --    0.03785   0.07795   0.08172   0.10136   0.11449
 Alpha virt. eigenvalues --    0.11514   0.15407   0.16037   0.17249   0.20042
 Alpha virt. eigenvalues --    0.20144   0.25278   0.32752   0.34418   0.35145

 Mulliken charges:
               1
     1  C   -0.073791
     2  C    0.001529
     3  N   -0.204246
     4  H    0.092210
     5  H    0.093751
     6  H    0.090547
 Sum of Mulliken charges =   0.00000

 Dipole moment (field-independent basis, Debye):
    X=              4.1363    Y=              0.0070    Z=              0.0280  Tot=              4.1364
 Quadrupole moment (field-independent basis, Debye-Ang):
   XX=            -20.7916   YY=            -17.7221   ZZ=            -17.8761
   XY=             -0.1532   XZ=             -0.0749   YZ=              0.0132

 Normal termination of Gaussian 09 at Wed Aug 26 12:32:20 2020.
