 Gaussian 09, Revision D.01,
 Gaussian 09:  ES64L-G09RevD.01 24-Apr-2013

 --------------------
 #p B2PLYPD3/Def2QZVP
 --------------------

 ------------
 cyanomethane
 ------------
 Symbolic Z-matrix:
 Charge =  0 Multiplicity = 1

                         Standard orientation:
 ---------------------------------------------------------------------
 Center     Atomic      Atomic             Coordinates (Angstroms)
 Number     Number       Type             X           Y           Z
 ---------------------------------------------------------------------
      1          6           0       -1.170241    0.004397    0.004515
      2          6           0        0.273594   -0.015423    0.002545
      3          7           0        1.434519    0.005756   -0.002958
      4          1           0       -1.540909   -0.079737    1.025014
      5          1           0       -1.582904   -0.843449   -0.599892
      6          1           0       -1.537932    0.949050   -0.446774
 ---------------------------------------------------------------------

 SCF Done:  E(RB2PLYPD3) =  -132.533913419     A.U. after   11 cycles
 E2(B2PLYPD3) =    -0.1812620155D+00 E(B2PLYPD3) =    -0.13271517543431D+03

 The electronic state is 1-A.
 Alpha  occ. eigenvalues --  -14.84379 -10.67513 -10.66415  -1.03892  -0.89113
 Alpha  occ. eigenvalues --   -0.59816  -0.53993  -0.53229  -0.44841  -0.38854
 Alpha  occ. eigenvalues --   -0.38758
 Alpha virt. eigenvalues --    0.03668   0.07358   0.07665   0.10135   0.11435
 Alpha virt. eigenvalues --    0.11560   0.15443   0.16273   0.16336   0.20109
 Alpha virt. eigenvalues --    0.20137   0.25583   0.32621   0.34139   0.34549

 Mulliken charges:
               1
     1  C   -0.087673
     2  C    0.000959
     3  N   -0.208906
     4  H    0.100323
     5  H    0.096287
     6  H    0.099010
 Sum of Mulliken charges =   0.00000

 Dipole moment (field-independent basis, Debye):
    X=             -4.1268    Y=             -0.0041    Z=              0.0060  Tot=              4.1268
 Quadrupole moment (field-independent basis, Debye-Ang):
   XX=            -21.0455   YY=            -17.8005   ZZ=            -17.7649
   XY=             -0.0066   XZ=              0.0337   YZ=             -0.0154

 Normal termination of Gaussian 09 at Wed Aug 26 19:33:29 2020.
