 Gaussian 09, Revision D.01,
 Gaussian 09:  ES64L-G09RevD.01 24-Apr-2013

 --------------------
 #p B2PLYPD3/Def2QZVP
 --------------------

 ------------
 cyanomethane
 ------------
 Symbolic Z-matrix:
 Charge =  0 Multiplicity = 1

                         Standard orientation:
 ---------------------------------------------------------------------
 Center     Atomic      Atomic             Coordinates (Angstroms)
 Number     Number       Type             X           Y           Z
 ---------------------------------------------------------------------
      1          6           0        1.171829   -0.011933    0.000332
      2          6           0       -0.280602    0.010004   -0.037067
      3          7           0       -1.427589   -0.005567    0.022656
      4          1           0        1.591890    0.041338    1.024132
      5          1           0        1.507765    0.911337   -0.500328
      6          1           0        1.546104   -0.902129   -0.461978
 ---------------------------------------------------------------------

 SCF Done:  E(RB2PLYPD3) =  -132.533867077     A.U. after   12 cycles
 E2(B2PLYPD3) =    -0.1801037567D+00 E(B2PLYPD3) =    -0.13271397083329D+03

 The electronic state is 1-A.
 Alpha  occ. eigenvalues --  -14.84029 -10.67169 -10.66053  -1.04375  -0.89181
 Alpha  occ. eigenvalues --   -0.59792  -0.54763  -0.52758  -0.44785  -0.39296
 Alpha  occ. eigenvalues --   -0.39006
 Alpha virt. eigenvalues --    0.03700   0.07553   0.08288   0.10126   0.11382
 Alpha virt. eigenvalues --    0.11745   0.15473   0.15934   0.16899   0.19999
 Alpha virt. eigenvalues --    0.20135   0.25535   0.32879   0.34018   0.35052

 Mulliken charges:
               1
     1  C   -0.085806
     2  C   -0.001065
     3  N   -0.203004
     4  H    0.093048
     5  H    0.096032
     6  H    0.100796
 Sum of Mulliken charges =   0.00000

 Dipole moment (field-independent basis, Debye):
    X=              4.1046    Y=              0.0170    Z=             -0.0187  Tot=              4.1046
 Quadrupole moment (field-independent basis, Debye-Ang):
   XX=            -21.0067   YY=            -17.6036   ZZ=            -17.8670
   XY=             -0.0371   XZ=              0.2234   YZ=              0.0345

 Normal termination of Gaussian 09 at Wed Aug 26 11:23:18 2020.
