 Gaussian 09, Revision D.01,
 Gaussian 09:  ES64L-G09RevD.01 24-Apr-2013

 --------------------
 #p B2PLYPD3/Def2QZVP
 --------------------

 ------------
 cyanomethane
 ------------
 Symbolic Z-matrix:
 Charge =  0 Multiplicity = 1

                         Standard orientation:
 ---------------------------------------------------------------------
 Center     Atomic      Atomic             Coordinates (Angstroms)
 Number     Number       Type             X           Y           Z
 ---------------------------------------------------------------------
      1          6           0       -1.199206   -0.016830    0.021734
      2          6           0        0.290139    0.052246    0.005012
      3          7           0        1.438874   -0.022518   -0.011834
      4          1           0       -1.433389   -0.239306    0.944665
      5          1           0       -1.573036   -0.812395   -0.687523
      6          1           0       -1.611289    0.996832   -0.334779
 ---------------------------------------------------------------------

 SCF Done:  E(RB2PLYPD3) =  -132.521334584     A.U. after   12 cycles
 E2(B2PLYPD3) =    -0.1803059030D+00 E(B2PLYPD3) =    -0.13270164048649D+03

 The electronic state is 1-A.
 Alpha  occ. eigenvalues --  -14.84100 -10.67332 -10.66206  -1.04173  -0.89095
 Alpha  occ. eigenvalues --   -0.58842  -0.55724  -0.52329  -0.44674  -0.39421
 Alpha  occ. eigenvalues --   -0.39063
 Alpha virt. eigenvalues --    0.03578   0.07375   0.08989   0.10192   0.11115
 Alpha virt. eigenvalues --    0.11462   0.15183   0.15809   0.16509   0.20003
 Alpha virt. eigenvalues --    0.20083   0.24884   0.31881   0.33567   0.35224

 Mulliken charges:
               1
     1  C   -0.100282
     2  C   -0.003443
     3  N   -0.204259
     4  H    0.113480
     5  H    0.097811
     6  H    0.096693
 Sum of Mulliken charges =   0.00000

 Dipole moment (field-independent basis, Debye):
    X=             -4.1089    Y=              0.0113    Z=              0.0301  Tot=              4.1090
 Quadrupole moment (field-independent basis, Debye-Ang):
   XX=            -21.1386   YY=            -17.6840   ZZ=            -17.7495
   XY=              0.1193   XZ=              0.1614   YZ=             -0.0567

 Normal termination of Gaussian 09 at Wed Aug 26 22:48:22 2020.
