 Gaussian 09, Revision D.01,
 Gaussian 09:  ES64L-G09RevD.01 24-Apr-2013

 --------------------
 #p B2PLYPD3/Def2QZVP
 --------------------

 ------------
 cyanomethane
 ------------
 Symbolic Z-matrix:
 Charge =  0 Multiplicity = 1

                         Standard orientation:
 ---------------------------------------------------------------------
 Center     Atomic      Atomic             Coordinates (Angstroms)
 Number     Number       Type             X           Y           Z
 ---------------------------------------------------------------------
      1          6           0       -1.171694    0.010380    0.007800
      2          6           0        0.271993    0.032216    0.018159
      3          7           0        1.419688   -0.025222   -0.021015
      4          1           0       -1.681979   -0.769132   -0.741831
      5          1           0       -1.456117    1.015078   -0.253730
      6          1           0       -1.401511   -0.324971    0.986909
 ---------------------------------------------------------------------

 SCF Done:  E(RB2PLYPD3) =  -132.523371359     A.U. after   12 cycles
 E2(B2PLYPD3) =    -0.1805896832D+00 E(B2PLYPD3) =    -0.13270396104205D+03

 The electronic state is 1-A.
 Alpha  occ. eigenvalues --  -14.83911 -10.67582 -10.65907  -1.04297  -0.89430
 Alpha  occ. eigenvalues --   -0.58632  -0.56163  -0.51858  -0.44651  -0.39135
 Alpha  occ. eigenvalues --   -0.38698
 Alpha virt. eigenvalues --    0.03351   0.06885   0.08811   0.10154   0.11408
 Alpha virt. eigenvalues --    0.11839   0.15197   0.15389   0.16931   0.20056
 Alpha virt. eigenvalues --    0.20192   0.25591   0.31997   0.33643   0.35089

 Mulliken charges:
               1
     1  C   -0.105524
     2  C   -0.001866
     3  N   -0.205011
     4  H    0.093463
     5  H    0.109800
     6  H    0.109139
 Sum of Mulliken charges =   0.00000

 Dipole moment (field-independent basis, Debye):
    X=             -4.0700    Y=              0.0348    Z=              0.0594  Tot=              4.0706
 Quadrupole moment (field-independent basis, Debye-Ang):
   XX=            -21.3073   YY=            -17.5791   ZZ=            -17.7792
   XY=              0.2799   XZ=              0.2449   YZ=             -0.1423

 Normal termination of Gaussian 09 at Wed Aug 26 19:24:54 2020.
