 Gaussian 09, Revision D.01,
 Gaussian 09:  ES64L-G09RevD.01 24-Apr-2013

 --------------------
 #p B2PLYPD3/Def2QZVP
 --------------------

 ------------
 cyanomethane
 ------------
 Symbolic Z-matrix:
 Charge =  0 Multiplicity = 1

                         Standard orientation:
 ---------------------------------------------------------------------
 Center     Atomic      Atomic             Coordinates (Angstroms)
 Number     Number       Type             X           Y           Z
 ---------------------------------------------------------------------
      1          6           0       -1.189096   -0.004202    0.006688
      2          6           0        0.275522   -0.036620   -0.011322
      3          7           0        1.442378    0.016393   -0.001421
      4          1           0       -1.458580   -0.203371    0.979989
      5          1           0       -1.633824   -0.687516   -0.678477
      6          1           0       -1.522797    1.021065   -0.263763
 ---------------------------------------------------------------------

 SCF Done:  E(RB2PLYPD3) =  -132.530616422     A.U. after   12 cycles
 E2(B2PLYPD3) =    -0.1814352023D+00 E(B2PLYPD3) =    -0.13271205162433D+03

 The electronic state is 1-A.
 Alpha  occ. eigenvalues --  -14.84543 -10.66673 -10.66616  -1.03553  -0.89718
 Alpha  occ. eigenvalues --   -0.59748  -0.55485  -0.53540  -0.44782  -0.38894
 Alpha  occ. eigenvalues --   -0.38676
 Alpha virt. eigenvalues --    0.03751   0.07620   0.08360   0.10215   0.11069
 Alpha virt. eigenvalues --    0.11370   0.15292   0.15858   0.16532   0.20111
 Alpha virt. eigenvalues --    0.20191   0.25230   0.32523   0.34174   0.35570

 Mulliken charges:
               1
     1  C   -0.081316
     2  C    0.000221
     3  N   -0.213416
     4  H    0.102487
     5  H    0.096851
     6  H    0.095173
 Sum of Mulliken charges =   0.00000

 Dipole moment (field-independent basis, Debye):
    X=             -4.1553    Y=             -0.0161    Z=              0.0154  Tot=              4.1553
 Quadrupole moment (field-independent basis, Debye-Ang):
   XX=            -20.9988   YY=            -17.7872   ZZ=            -17.7453
   XY=             -0.0470   XZ=              0.0977   YZ=              0.0043

 Normal termination of Gaussian 09 at Wed Aug 26 13:59:37 2020.
