 Gaussian 09, Revision D.01,
 Gaussian 09:  ES64L-G09RevD.01 24-Apr-2013

 --------------------
 #p B2PLYPD3/Def2QZVP
 --------------------

 ------------
 cyanomethane
 ------------
 Symbolic Z-matrix:
 Charge =  0 Multiplicity = 1

                         Standard orientation:
 ---------------------------------------------------------------------
 Center     Atomic      Atomic             Coordinates (Angstroms)
 Number     Number       Type             X           Y           Z
 ---------------------------------------------------------------------
      1          6           0        1.181591    0.014909   -0.006351
      2          6           0       -0.283373   -0.037293   -0.015426
      3          7           0       -1.436644    0.014798    0.008044
      4          1           0        1.512138    1.052953    0.028717
      5          1           0        1.586521   -0.505041   -0.851733
      6          1           0        1.568540   -0.517196    0.897367
 ---------------------------------------------------------------------

 SCF Done:  E(RB2PLYPD3) =  -132.534460147     A.U. after   11 cycles
 E2(B2PLYPD3) =    -0.1805681323D+00 E(B2PLYPD3) =    -0.13271502827964D+03

 The electronic state is 1-A.
 Alpha  occ. eigenvalues --  -14.84228 -10.67326 -10.66309  -1.04108  -0.88968
 Alpha  occ. eigenvalues --   -0.59571  -0.54500  -0.53008  -0.44797  -0.39195
 Alpha  occ. eigenvalues --   -0.38982
 Alpha virt. eigenvalues --    0.03680   0.07686   0.08094   0.10185   0.11298
 Alpha virt. eigenvalues --    0.11558   0.15310   0.16091   0.16627   0.20024
 Alpha virt. eigenvalues --    0.20114   0.25312   0.32607   0.34109   0.35010

 Mulliken charges:
               1
     1  C   -0.085257
     2  C   -0.000741
     3  N   -0.205816
     4  H    0.101963
     5  H    0.097224
     6  H    0.092626
 Sum of Mulliken charges =   0.00000

 Dipole moment (field-independent basis, Debye):
    X=              4.1256    Y=             -0.0314    Z=             -0.0087  Tot=              4.1257
 Quadrupole moment (field-independent basis, Debye-Ang):
   XX=            -20.9982   YY=            -17.6703   ZZ=            -17.8661
   XY=             -0.0071   XZ=              0.0417   YZ=              0.0366

 Normal termination of Gaussian 09 at Wed Aug 26 12:45:31 2020.
