 Gaussian 09, Revision D.01,
 Gaussian 09:  ES64L-G09RevD.01 24-Apr-2013

 --------------------
 #p B2PLYPD3/Def2QZVP
 --------------------

 ------------
 cyanomethane
 ------------
 Symbolic Z-matrix:
 Charge =  0 Multiplicity = 1

                         Standard orientation:
 ---------------------------------------------------------------------
 Center     Atomic      Atomic             Coordinates (Angstroms)
 Number     Number       Type             X           Y           Z
 ---------------------------------------------------------------------
      1          6           0        1.167833   -0.001844    0.001832
      2          6           0       -0.280550   -0.009061    0.011320
      3          7           0       -1.428402    0.009264   -0.007579
      4          1           0        1.619742    0.955948   -0.365556
      5          1           0        1.525472   -0.795106   -0.637979
      6          1           0        1.529904   -0.160258    0.977681
 ---------------------------------------------------------------------

 SCF Done:  E(RB2PLYPD3) =  -132.534243527     A.U. after   12 cycles
 E2(B2PLYPD3) =    -0.1798977012D+00 E(B2PLYPD3) =    -0.13271414122791D+03

 The electronic state is 1-A.
 Alpha  occ. eigenvalues --  -14.84046 -10.66816 -10.66067  -1.04425  -0.89466
 Alpha  occ. eigenvalues --   -0.60181  -0.54547  -0.53207  -0.44825  -0.39265
 Alpha  occ. eigenvalues --   -0.39154
 Alpha virt. eigenvalues --    0.03755   0.07606   0.08389   0.10175   0.11498
 Alpha virt. eigenvalues --    0.11663   0.15539   0.16145   0.16912   0.20042
 Alpha virt. eigenvalues --    0.20106   0.25541   0.32877   0.34492   0.35006

 Mulliken charges:
               1
     1  C   -0.077502
     2  C   -0.001296
     3  N   -0.202833
     4  H    0.091187
     5  H    0.094884
     6  H    0.095561
 Sum of Mulliken charges =   0.00000

 Dipole moment (field-independent basis, Debye):
    X=              4.1198    Y=             -0.0282    Z=              0.0234  Tot=              4.1200
 Quadrupole moment (field-independent basis, Debye-Ang):
   XX=            -20.8735   YY=            -17.7423   ZZ=            -17.7556
   XY=              0.0947   XZ=             -0.0400   YZ=              0.0205

 Normal termination of Gaussian 09 at Thu Aug 27 00:04:56 2020.
