 Gaussian 09, Revision D.01,
 Gaussian 09:  ES64L-G09RevD.01 24-Apr-2013

 --------------------
 #p B2PLYPD3/Def2QZVP
 --------------------

 ------------
 cyanomethane
 ------------
 Symbolic Z-matrix:
 Charge =  0 Multiplicity = 1

                         Standard orientation:
 ---------------------------------------------------------------------
 Center     Atomic      Atomic             Coordinates (Angstroms)
 Number     Number       Type             X           Y           Z
 ---------------------------------------------------------------------
      1          6           0        1.177833    0.009580    0.004371
      2          6           0       -0.287361   -0.024678   -0.000034
      3          7           0       -1.436919    0.012304   -0.002866
      4          1           0        1.582621    1.020368   -0.204293
      5          1           0        1.594008   -0.688448   -0.757340
      6          1           0        1.538968   -0.327461    0.955671
 ---------------------------------------------------------------------

 SCF Done:  E(RB2PLYPD3) =  -132.534594115     A.U. after   12 cycles
 E2(B2PLYPD3) =    -0.1802553724D+00 E(B2PLYPD3) =    -0.13271484948781D+03

 The electronic state is 1-A.
 Alpha  occ. eigenvalues --  -14.84165 -10.67431 -10.66254  -1.04327  -0.88814
 Alpha  occ. eigenvalues --   -0.59794  -0.53875  -0.53020  -0.44845  -0.39283
 Alpha  occ. eigenvalues --   -0.39170
 Alpha virt. eigenvalues --    0.03679   0.07592   0.08109   0.10182   0.11452
 Alpha virt. eigenvalues --    0.11565   0.15378   0.16165   0.16894   0.20046
 Alpha virt. eigenvalues --    0.20066   0.25268   0.32591   0.34342   0.34773

 Mulliken charges:
               1
     1  C   -0.082215
     2  C   -0.000613
     3  N   -0.202808
     4  H    0.096950
     5  H    0.092016
     6  H    0.096670
 Sum of Mulliken charges =   0.00000

 Dipole moment (field-independent basis, Debye):
    X=              4.1247    Y=             -0.0303    Z=              0.0161  Tot=              4.1249
 Quadrupole moment (field-independent basis, Debye-Ang):
   XX=            -20.9018   YY=            -17.7400   ZZ=            -17.8444
   XY=              0.0435   XZ=             -0.0317   YZ=             -0.0320

 Normal termination of Gaussian 09 at Thu Aug 27 00:03:35 2020.
