 Gaussian 09, Revision D.01,
 Gaussian 09:  ES64L-G09RevD.01 24-Apr-2013

 --------------------
 #p B2PLYPD3/Def2QZVP
 --------------------

 ------------
 cyanomethane
 ------------
 Symbolic Z-matrix:
 Charge =  0 Multiplicity = 1

                         Standard orientation:
 ---------------------------------------------------------------------
 Center     Atomic      Atomic             Coordinates (Angstroms)
 Number     Number       Type             X           Y           Z
 ---------------------------------------------------------------------
      1          6           0       -1.164990   -0.000662    0.009984
      2          6           0        0.273420    0.002525   -0.012924
      3          7           0        1.433992   -0.000827    0.003250
      4          1           0       -1.587676   -0.549541   -0.861026
      5          1           0       -1.569948    1.022386   -0.042373
      6          1           0       -1.530897   -0.478234    0.898289
 ---------------------------------------------------------------------

 SCF Done:  E(RB2PLYPD3) =  -132.534162205     A.U. after   11 cycles
 E2(B2PLYPD3) =    -0.1811156812D+00 E(B2PLYPD3) =    -0.13271527788610D+03

 The electronic state is 1-A.
 Alpha  occ. eigenvalues --  -14.84410 -10.67119 -10.66427  -1.03955  -0.89392
 Alpha  occ. eigenvalues --   -0.60372  -0.54207  -0.53173  -0.44899  -0.38914
 Alpha  occ. eigenvalues --   -0.38778
 Alpha virt. eigenvalues --    0.03734   0.07394   0.07694   0.10127   0.11456
 Alpha virt. eigenvalues --    0.11589   0.15537   0.16398   0.16520   0.20108
 Alpha virt. eigenvalues --    0.20140   0.25698   0.32750   0.34261   0.34870

 Mulliken charges:
               1
     1  C   -0.077785
     2  C    0.001546
     3  N   -0.208691
     4  H    0.092048
     5  H    0.094704
     6  H    0.098179
 Sum of Mulliken charges =   0.00000

 Dipole moment (field-independent basis, Debye):
    X=             -4.1354    Y=             -0.0027    Z=             -0.0014  Tot=              4.1354
 Quadrupole moment (field-independent basis, Debye-Ang):
   XX=            -20.9041   YY=            -17.7914   ZZ=            -17.8090
   XY=              0.0060   XZ=              0.0213   YZ=             -0.0382

 Normal termination of Gaussian 09 at Wed Aug 26 23:55:18 2020.
