 Gaussian 09, Revision D.01,
 Gaussian 09:  ES64L-G09RevD.01 24-Apr-2013

 --------------------
 #p B2PLYPD3/Def2QZVP
 --------------------

 ------------
 cyanomethane
 ------------
 Symbolic Z-matrix:
 Charge =  0 Multiplicity = 1

                         Standard orientation:
 ---------------------------------------------------------------------
 Center     Atomic      Atomic             Coordinates (Angstroms)
 Number     Number       Type             X           Y           Z
 ---------------------------------------------------------------------
      1          6           0        1.186683   -0.001039    0.010455
      2          6           0       -0.278893    0.009666   -0.016284
      3          7           0       -1.435467   -0.004079    0.008067
      4          1           0        1.541540   -0.031109    1.025274
      5          1           0        1.540113    0.915283   -0.502933
      6          1           0        1.519878   -0.907376   -0.543832
 ---------------------------------------------------------------------

 SCF Done:  E(RB2PLYPD3) =  -132.534219325     A.U. after   11 cycles
 E2(B2PLYPD3) =    -0.1807850595D+00 E(B2PLYPD3) =    -0.13271500438455D+03

 The electronic state is 1-A.
 Alpha  occ. eigenvalues --  -14.84180 -10.67551 -10.66271  -1.03946  -0.88952
 Alpha  occ. eigenvalues --   -0.59034  -0.54170  -0.53665  -0.44691  -0.39015
 Alpha  occ. eigenvalues --   -0.38902
 Alpha virt. eigenvalues --    0.03692   0.07870   0.07930   0.10168   0.11362
 Alpha virt. eigenvalues --    0.11437   0.15253   0.15866   0.16328   0.20093
 Alpha virt. eigenvalues --    0.20115   0.25181   0.32482   0.34051   0.34711

 Mulliken charges:
               1
     1  C   -0.096515
     2  C   -0.002017
     3  N   -0.207674
     4  H    0.104010
     5  H    0.101036
     6  H    0.101160
 Sum of Mulliken charges =   0.00000

 Dipole moment (field-independent basis, Debye):
    X=              4.1192    Y=              0.0037    Z=             -0.0060  Tot=              4.1192
 Quadrupole moment (field-independent basis, Debye-Ang):
   XX=            -21.2100   YY=            -17.7114   ZZ=            -17.7349
   XY=             -0.0113   XZ=              0.0663   YZ=             -0.0043

 Normal termination of Gaussian 09 at Thu Aug 27 00:05:28 2020.
