 Gaussian 09, Revision D.01,
 Gaussian 09:  ES64L-G09RevD.01 24-Apr-2013

 --------------------
 #p B2PLYPD3/Def2QZVP
 --------------------

 ------------
 cyanomethane
 ------------
 Symbolic Z-matrix:
 Charge =  0 Multiplicity = 1

                         Standard orientation:
 ---------------------------------------------------------------------
 Center     Atomic      Atomic             Coordinates (Angstroms)
 Number     Number       Type             X           Y           Z
 ---------------------------------------------------------------------
      1          6           0        1.169190   -0.022128   -0.046979
      2          6           0       -0.264212    0.050707    0.003274
      3          7           0       -1.438617   -0.019309    0.015057
      4          1           0        1.702992   -0.156075    1.026098
      5          1           0        1.539175    0.990137   -0.323377
      6          1           0        1.398282   -0.870378   -0.545898
 ---------------------------------------------------------------------

 SCF Done:  E(RB2PLYPD3) =  -132.513469798     A.U. after   12 cycles
 E2(B2PLYPD3) =    -0.1831205091D+00 E(B2PLYPD3) =    -0.13269659030703D+03

 The electronic state is 1-A.
 Alpha  occ. eigenvalues --  -14.84805 -10.67592 -10.66810  -1.03359  -0.89609
 Alpha  occ. eigenvalues --   -0.59925  -0.57221  -0.50376  -0.44889  -0.38744
 Alpha  occ. eigenvalues --   -0.37839
 Alpha virt. eigenvalues --    0.03340   0.06049   0.07898   0.10034   0.10930
 Alpha virt. eigenvalues --    0.11926   0.15038   0.16207   0.16620   0.19979
 Alpha virt. eigenvalues --    0.20327   0.25853   0.31218   0.32864   0.36095

 Mulliken charges:
               1
     1  C   -0.087015
     2  C    0.005271
     3  N   -0.216620
     4  H    0.078875
     5  H    0.104836
     6  H    0.114653
 Sum of Mulliken charges =   0.00000

 Dipole moment (field-independent basis, Debye):
    X=              4.1293    Y=              0.0266    Z=              0.0034  Tot=              4.1294
 Quadrupole moment (field-independent basis, Debye-Ang):
   XX=            -21.1004   YY=            -17.4583   ZZ=            -18.2456
   XY=              0.0002   XZ=              0.3651   YZ=              0.1363

 Normal termination of Gaussian 09 at Wed Aug 26 23:07:23 2020.
