 Gaussian 09, Revision D.01,
 Gaussian 09:  ES64L-G09RevD.01 24-Apr-2013

 --------------------
 #p B2PLYPD3/Def2QZVP
 --------------------

 ------------
 cyanomethane
 ------------
 Symbolic Z-matrix:
 Charge =  0 Multiplicity = 1

                         Standard orientation:
 ---------------------------------------------------------------------
 Center     Atomic      Atomic             Coordinates (Angstroms)
 Number     Number       Type             X           Y           Z
 ---------------------------------------------------------------------
      1          6           0        1.185081    0.002525    0.007717
      2          6           0       -0.273937    0.003443   -0.028398
      3          7           0       -1.440419   -0.002023    0.014562
      4          1           0        1.538824    1.007877   -0.029377
      5          1           0        1.532215   -0.547286   -0.847677
      6          1           0        1.545026   -0.482240    0.899213
 ---------------------------------------------------------------------

 SCF Done:  E(RB2PLYPD3) =  -132.533865907     A.U. after   12 cycles
 E2(B2PLYPD3) =    -0.1813681918D+00 E(B2PLYPD3) =    -0.13271523409903D+03

 The electronic state is 1-A.
 Alpha  occ. eigenvalues --  -14.84514 -10.66699 -10.66584  -1.03588  -0.89646
 Alpha  occ. eigenvalues --   -0.59747  -0.54701  -0.54203  -0.44789  -0.38816
 Alpha  occ. eigenvalues --   -0.38745
 Alpha virt. eigenvalues --    0.03804   0.07763   0.08089   0.10148   0.11192
 Alpha virt. eigenvalues --    0.11320   0.15385   0.15898   0.16471   0.20139
 Alpha virt. eigenvalues --    0.20167   0.25336   0.32687   0.34692   0.34992

 Mulliken charges:
               1
     1  C   -0.080287
     2  C   -0.000465
     3  N   -0.212841
     4  H    0.098829
     5  H    0.096754
     6  H    0.098010
 Sum of Mulliken charges =   0.00000

 Dipole moment (field-independent basis, Debye):
    X=              4.1492    Y=             -0.0019    Z=             -0.0204  Tot=              4.1492
 Quadrupole moment (field-independent basis, Debye-Ang):
   XX=            -21.0272   YY=            -17.7301   ZZ=            -17.7807
   XY=             -0.0218   XZ=              0.0825   YZ=             -0.0006

 Normal termination of Gaussian 09 at Thu Aug 27 00:08:54 2020.
