 Gaussian 09, Revision D.01,
 Gaussian 09:  ES64L-G09RevD.01 24-Apr-2013

 --------------------
 #p B2PLYPD3/Def2QZVP
 --------------------

 ------------
 cyanomethane
 ------------
 Symbolic Z-matrix:
 Charge =  0 Multiplicity = 1

                         Standard orientation:
 ---------------------------------------------------------------------
 Center     Atomic      Atomic             Coordinates (Angstroms)
 Number     Number       Type             X           Y           Z
 ---------------------------------------------------------------------
      1          6           0        1.168754   -0.007154   -0.038394
      2          6           0       -0.269628   -0.041600    0.024684
      3          7           0       -1.421702    0.017991   -0.004885
      4          1           0        1.571522    0.148605    1.007016
      5          1           0        1.440946    0.958097   -0.517197
      6          1           0        1.544690   -0.940116   -0.373364
 ---------------------------------------------------------------------

 SCF Done:  E(RB2PLYPD3) =  -132.528404276     A.U. after   11 cycles
 E2(B2PLYPD3) =    -0.1807937694D+00 E(B2PLYPD3) =    -0.13270919804501D+03

 The electronic state is 1-A.
 Alpha  occ. eigenvalues --  -14.84006 -10.67336 -10.66013  -1.04109  -0.89467
 Alpha  occ. eigenvalues --   -0.59369  -0.56324  -0.51795  -0.44672  -0.39171
 Alpha  occ. eigenvalues --   -0.38436
 Alpha virt. eigenvalues --    0.03605   0.07289   0.08215   0.10146   0.11136
 Alpha virt. eigenvalues --    0.12073   0.14874   0.15939   0.16928   0.19945
 Alpha virt. eigenvalues --    0.20242   0.25747   0.32454   0.33104   0.35672

 Mulliken charges:
               1
     1  C   -0.090792
     2  C    0.000320
     3  N   -0.208237
     4  H    0.085414
     5  H    0.105540
     6  H    0.107755
 Sum of Mulliken charges =   0.00000

 Dipole moment (field-independent basis, Debye):
    X=              4.1075    Y=              0.0026    Z=              0.0693  Tot=              4.1080
 Quadrupole moment (field-independent basis, Debye-Ang):
   XX=            -21.2200   YY=            -17.3023   ZZ=            -18.0980
   XY=              0.0755   XZ=              0.2001   YZ=              0.0332

 Normal termination of Gaussian 09 at Wed Aug 26 16:36:48 2020.
