 Gaussian 09, Revision D.01,
 Gaussian 09:  ES64L-G09RevD.01 24-Apr-2013

 --------------------
 #p B2PLYPD3/Def2QZVP
 --------------------

 ------------
 cyanomethane
 ------------
 Symbolic Z-matrix:
 Charge =  0 Multiplicity = 1

                         Standard orientation:
 ---------------------------------------------------------------------
 Center     Atomic      Atomic             Coordinates (Angstroms)
 Number     Number       Type             X           Y           Z
 ---------------------------------------------------------------------
      1          6           0        1.174315   -0.009412   -0.011511
      2          6           0       -0.275826   -0.013894    0.012933
      3          7           0       -1.431865    0.008401   -0.003870
      4          1           0        1.567473    0.045570    1.004434
      5          1           0        1.533310    0.914496   -0.508345
      6          1           0        1.531340   -0.879038   -0.477526
 ---------------------------------------------------------------------

 SCF Done:  E(RB2PLYPD3) =  -132.534068626     A.U. after   11 cycles
 E2(B2PLYPD3) =    -0.1805538808D+00 E(B2PLYPD3) =    -0.13271462250690D+03

 The electronic state is 1-A.
 Alpha  occ. eigenvalues --  -14.84213 -10.66857 -10.66250  -1.04049  -0.89532
 Alpha  occ. eigenvalues --   -0.59900  -0.55150  -0.53129  -0.44785  -0.39126
 Alpha  occ. eigenvalues --   -0.38835
 Alpha virt. eigenvalues --    0.03766   0.07682   0.08203   0.10170   0.11263
 Alpha virt. eigenvalues --    0.11651   0.15426   0.16142   0.16535   0.20048
 Alpha virt. eigenvalues --    0.20162   0.25483   0.32819   0.34082   0.35274

 Mulliken charges:
               1
     1  C   -0.081129
     2  C   -0.001087
     3  N   -0.207564
     4  H    0.092331
     5  H    0.095909
     6  H    0.101541
 Sum of Mulliken charges =   0.00000

 Dipole moment (field-independent basis, Debye):
    X=              4.1298    Y=             -0.0046    Z=              0.0238  Tot=              4.1299
 Quadrupole moment (field-independent basis, Debye-Ang):
   XX=            -20.9975   YY=            -17.6265   ZZ=            -17.8525
   XY=              0.0686   XZ=              0.0546   YZ=              0.0534

 Normal termination of Gaussian 09 at Thu Aug 27 00:09:19 2020.
