 Gaussian 09, Revision D.01,
 Gaussian 09:  ES64L-G09RevD.01 24-Apr-2013

 --------------------
 #p B2PLYPD3/Def2QZVP
 --------------------

 ------------
 cyanomethane
 ------------
 Symbolic Z-matrix:
 Charge =  0 Multiplicity = 1

                         Standard orientation:
 ---------------------------------------------------------------------
 Center     Atomic      Atomic             Coordinates (Angstroms)
 Number     Number       Type             X           Y           Z
 ---------------------------------------------------------------------
      1          6           0       -1.190452    0.014469   -0.032063
      2          6           0        0.277038   -0.009970   -0.016999
      3          7           0        1.442386    0.005524    0.014379
      4          1           0       -1.572901   -0.068683    0.963336
      5          1           0       -1.498983   -0.864529   -0.424380
      6          1           0       -1.544335    0.867557   -0.345237
 ---------------------------------------------------------------------

 SCF Done:  E(RB2PLYPD3) =  -132.516194848     A.U. after   12 cycles
 E2(B2PLYPD3) =    -0.1808878808D+00 E(B2PLYPD3) =    -0.13269708272857D+03

 The electronic state is 1-A.
 Alpha  occ. eigenvalues --  -14.84503 -10.66610 -10.65095  -1.03662  -0.90978
 Alpha  occ. eigenvalues --   -0.60806  -0.58270  -0.52648  -0.44807  -0.39246
 Alpha  occ. eigenvalues --   -0.38601
 Alpha virt. eigenvalues --    0.03931   0.08037   0.08861   0.10163   0.10719
 Alpha virt. eigenvalues --    0.11677   0.15290   0.16013   0.17191   0.20012
 Alpha virt. eigenvalues --    0.20297   0.25093   0.32763   0.34173   0.36808

 Mulliken charges:
               1
     1  C   -0.054617
     2  C    0.003163
     3  N   -0.213479
     4  H    0.073463
     5  H    0.094152
     6  H    0.097318
 Sum of Mulliken charges =   0.00000

 Dipole moment (field-independent basis, Debye):
    X=             -4.1867    Y=             -0.0286    Z=              0.0548  Tot=              4.1872
 Quadrupole moment (field-independent basis, Debye-Ang):
   XX=            -20.7314   YY=            -17.4205   ZZ=            -18.0694
   XY=             -0.0107   XZ=             -0.3016   YZ=             -0.0178

 Normal termination of Gaussian 09 at Wed Aug 26 22:53:44 2020.
