 Gaussian 09, Revision D.01,
 Gaussian 09:  ES64L-G09RevD.01 24-Apr-2013

 --------------------
 #p B2PLYPD3/Def2QZVP
 --------------------

 ------------
 cyanomethane
 ------------
 Symbolic Z-matrix:
 Charge =  0 Multiplicity = 1

                         Standard orientation:
 ---------------------------------------------------------------------
 Center     Atomic      Atomic             Coordinates (Angstroms)
 Number     Number       Type             X           Y           Z
 ---------------------------------------------------------------------
      1          6           0        1.187207   -0.006501    0.000773
      2          6           0       -0.281545    0.013647   -0.002288
      3          7           0       -1.435179   -0.003552   -0.000454
      4          1           0        1.536206   -0.512570   -0.872850
      5          1           0        1.498532   -0.517728    0.877889
      6          1           0        1.577542    1.012286    0.007228
 ---------------------------------------------------------------------

 SCF Done:  E(RB2PLYPD3) =  -132.535280092     A.U. after   11 cycles
 E2(B2PLYPD3) =    -0.1801747270D+00 E(B2PLYPD3) =    -0.13271545481878D+03

 The electronic state is 1-A.
 Alpha  occ. eigenvalues --  -14.84117 -10.66779 -10.66203  -1.04085  -0.89437
 Alpha  occ. eigenvalues --   -0.59385  -0.54747  -0.54035  -0.44706  -0.39156
 Alpha  occ. eigenvalues --   -0.39109
 Alpha virt. eigenvalues --    0.03833   0.08096   0.08376   0.10222   0.11342
 Alpha virt. eigenvalues --    0.11384   0.15317   0.16136   0.16333   0.20089
 Alpha virt. eigenvalues --    0.20092   0.25121   0.32679   0.34765   0.35023

 Mulliken charges:
               1
     1  C   -0.083914
     2  C   -0.003816
     3  N   -0.206413
     4  H    0.098522
     5  H    0.099903
     6  H    0.095718
 Sum of Mulliken charges =   0.00000

 Dipole moment (field-independent basis, Debye):
    X=              4.1331    Y=             -0.0018    Z=              0.0027  Tot=              4.1331
 Quadrupole moment (field-independent basis, Debye-Ang):
   XX=            -21.0418   YY=            -17.7217   ZZ=            -17.7043
   XY=              0.0176   XZ=             -0.0264   YZ=             -0.0065

 Normal termination of Gaussian 09 at Thu Aug 27 00:02:21 2020.
