 Gaussian 09, Revision D.01,
 Gaussian 09:  ES64L-G09RevD.01 24-Apr-2013

 --------------------
 #p B2PLYPD3/Def2QZVP
 --------------------

 ------------
 cyanomethane
 ------------
 Symbolic Z-matrix:
 Charge =  0 Multiplicity = 1

                         Standard orientation:
 ---------------------------------------------------------------------
 Center     Atomic      Atomic             Coordinates (Angstroms)
 Number     Number       Type             X           Y           Z
 ---------------------------------------------------------------------
      1          6           0       -1.202795    0.039794   -0.010346
      2          6           0        0.293562   -0.011711   -0.047738
      3          7           0        1.431811   -0.002193    0.022234
      4          1           0       -1.477738    0.993428   -0.202094
      5          1           0       -1.489449   -0.332599    1.083800
      6          1           0       -1.600092   -0.813973   -0.688835
 ---------------------------------------------------------------------

 SCF Done:  E(RB2PLYPD3) =  -132.519117463     A.U. after   12 cycles
 E2(B2PLYPD3) =    -0.1799375253D+00 E(B2PLYPD3) =    -0.13269905498785D+03

 The electronic state is 1-A.
 Alpha  occ. eigenvalues --  -14.83665 -10.68478 -10.65817  -1.04507  -0.88195
 Alpha  occ. eigenvalues --   -0.58200  -0.55714  -0.51037  -0.44504  -0.39706
 Alpha  occ. eigenvalues --   -0.38931
 Alpha virt. eigenvalues --    0.03350   0.07292   0.08875   0.10161   0.11114
 Alpha virt. eigenvalues --    0.11898   0.14880   0.15647   0.16417   0.19893
 Alpha virt. eigenvalues --    0.20107   0.24657   0.31774   0.31938   0.35268

 Mulliken charges:
               1
     1  C   -0.115014
     2  C   -0.004878
     3  N   -0.198757
     4  H    0.118831
     5  H    0.097839
     6  H    0.101979
 Sum of Mulliken charges =   0.00000

 Dipole moment (field-independent basis, Debye):
    X=             -4.0810    Y=             -0.0197    Z=             -0.0160  Tot=              4.0810
 Quadrupole moment (field-independent basis, Debye-Ang):
   XX=            -21.4358   YY=            -17.4435   ZZ=            -17.9039
   XY=              0.1452   XZ=             -0.1110   YZ=             -0.0499

 Normal termination of Gaussian 09 at Wed Aug 26 18:56:10 2020.
