 Gaussian 09, Revision D.01,
 Gaussian 09:  ES64L-G09RevD.01 24-Apr-2013

 --------------------
 #p B2PLYPD3/Def2QZVP
 --------------------

 ------------
 cyanomethane
 ------------
 Symbolic Z-matrix:
 Charge =  0 Multiplicity = 1

                         Standard orientation:
 ---------------------------------------------------------------------
 Center     Atomic      Atomic             Coordinates (Angstroms)
 Number     Number       Type             X           Y           Z
 ---------------------------------------------------------------------
      1          6           0       -1.186968    0.021277    0.013510
      2          6           0        0.267695   -0.046986    0.006370
      3          7           0        1.444049    0.021888   -0.003222
      4          1           0       -1.550331   -0.037398    0.987942
      5          1           0       -1.524523   -0.913994   -0.573598
      6          1           0       -1.517850    0.952426   -0.511068
 ---------------------------------------------------------------------

 SCF Done:  E(RB2PLYPD3) =  -132.526572893     A.U. after   12 cycles
 E2(B2PLYPD3) =    -0.1828730888D+00 E(B2PLYPD3) =    -0.13270944598213D+03

 The electronic state is 1-A.
 Alpha  occ. eigenvalues --  -14.84791 -10.67707 -10.66888  -1.03144  -0.89137
 Alpha  occ. eigenvalues --   -0.59494  -0.54708  -0.52944  -0.44787  -0.38551
 Alpha  occ. eigenvalues --   -0.38213
 Alpha virt. eigenvalues --    0.03522   0.07013   0.07731   0.10034   0.11088
 Alpha virt. eigenvalues --    0.11342   0.15231   0.15442   0.16490   0.20178
 Alpha virt. eigenvalues --    0.20210   0.25476   0.31952   0.33484   0.34728

 Mulliken charges:
               1
     1  C   -0.098675
     2  C    0.004533
     3  N   -0.217583
     4  H    0.107000
     5  H    0.097644
     6  H    0.107082
 Sum of Mulliken charges =   0.00000

 Dipole moment (field-independent basis, Debye):
    X=             -4.1338    Y=             -0.0262    Z=              0.0184  Tot=              4.1340
 Quadrupole moment (field-independent basis, Debye-Ang):
   XX=            -21.2756   YY=            -17.7299   ZZ=            -17.8418
   XY=             -0.0975   XZ=             -0.0464   YZ=             -0.0487

 Normal termination of Gaussian 09 at Wed Aug 26 11:03:29 2020.
