 Gaussian 09, Revision D.01,
 Gaussian 09:  ES64L-G09RevD.01 24-Apr-2013

 --------------------
 #p B2PLYPD3/Def2QZVP
 --------------------

 ------------
 cyanomethane
 ------------
 Symbolic Z-matrix:
 Charge =  0 Multiplicity = 1

                         Standard orientation:
 ---------------------------------------------------------------------
 Center     Atomic      Atomic             Coordinates (Angstroms)
 Number     Number       Type             X           Y           Z
 ---------------------------------------------------------------------
      1          6           0        1.155795    0.000146   -0.000637
      2          6           0       -0.278870    0.025970   -0.036453
      3          7           0       -1.418143   -0.017381    0.032439
      4          1           0        1.748245   -0.308256    0.929499
      5          1           0        1.464466    1.013498   -0.225392
      6          1           0        1.452740   -0.740273   -0.708638
 ---------------------------------------------------------------------

 SCF Done:  E(RB2PLYPD3) =  -132.525767019     A.U. after   12 cycles
 E2(B2PLYPD3) =    -0.1799352191D+00 E(B2PLYPD3) =    -0.13270570223816D+03

 The electronic state is 1-A.
 Alpha  occ. eigenvalues --  -14.83877 -10.67044 -10.65860  -1.04738  -0.89507
 Alpha  occ. eigenvalues --   -0.60328  -0.55575  -0.51467  -0.44839  -0.39389
 Alpha  occ. eigenvalues --   -0.38916
 Alpha virt. eigenvalues --    0.03552   0.06822   0.08684   0.10072   0.11553
 Alpha virt. eigenvalues --    0.12034   0.15502   0.15706   0.17675   0.19957
 Alpha virt. eigenvalues --    0.20372   0.25936   0.32925   0.33794   0.35001

 Mulliken charges:
               1
     1  C   -0.089536
     2  C    0.003215
     3  N   -0.199800
     4  H    0.088577
     5  H    0.098891
     6  H    0.098651
 Sum of Mulliken charges =   0.00000

 Dipole moment (field-independent basis, Debye):
    X=              4.0904    Y=              0.0079    Z=             -0.0615  Tot=              4.0909
 Quadrupole moment (field-independent basis, Debye-Ang):
   XX=            -20.8468   YY=            -17.5129   ZZ=            -18.0246
   XY=             -0.2093   XZ=              0.3813   YZ=              0.0644

 Normal termination of Gaussian 09 at Wed Aug 26 23:36:50 2020.
