 Gaussian 09, Revision D.01,
 Gaussian 09:  ES64L-G09RevD.01 24-Apr-2013

 --------------------
 #p B2PLYPD3/Def2QZVP
 --------------------

 ------------
 cyanomethane
 ------------
 Symbolic Z-matrix:
 Charge =  0 Multiplicity = 1

                         Standard orientation:
 ---------------------------------------------------------------------
 Center     Atomic      Atomic             Coordinates (Angstroms)
 Number     Number       Type             X           Y           Z
 ---------------------------------------------------------------------
      1          6           0        1.187076    0.007045   -0.010330
      2          6           0       -0.277661   -0.038794    0.006292
      3          7           0       -1.429334    0.019139   -0.003881
      4          1           0        1.519728    0.958228   -0.404886
      5          1           0        1.533411   -0.818984   -0.581498
      6          1           0        1.495709   -0.082719    1.037781
 ---------------------------------------------------------------------

 SCF Done:  E(RB2PLYPD3) =  -132.534419357     A.U. after   12 cycles
 E2(B2PLYPD3) =    -0.1802478039D+00 E(B2PLYPD3) =    -0.13271466716040D+03

 The electronic state is 1-A.
 Alpha  occ. eigenvalues --  -14.84018 -10.66961 -10.66073  -1.04077  -0.89410
 Alpha  occ. eigenvalues --   -0.58932  -0.55011  -0.53962  -0.44630  -0.39144
 Alpha  occ. eigenvalues --   -0.38967
 Alpha virt. eigenvalues --    0.03761   0.08010   0.08482   0.10167   0.11262
 Alpha virt. eigenvalues --    0.11506   0.15313   0.15656   0.16421   0.20059
 Alpha virt. eigenvalues --    0.20135   0.25267   0.32771   0.34251   0.35076

 Mulliken charges:
               1
     1  C   -0.093616
     2  C   -0.004047
     3  N   -0.206882
     4  H    0.102956
     5  H    0.102603
     6  H    0.098987
 Sum of Mulliken charges =   0.00000

 Dipole moment (field-independent basis, Debye):
    X=              4.1098    Y=             -0.0250    Z=              0.0142  Tot=              4.1099
 Quadrupole moment (field-independent basis, Debye-Ang):
   XX=            -21.2170   YY=            -17.6286   ZZ=            -17.7081
   XY=              0.0995   XZ=             -0.0292   YZ=              0.0213

 Normal termination of Gaussian 09 at Wed Aug 26 13:51:06 2020.
