 Gaussian 09, Revision D.01,
 Gaussian 09:  ES64L-G09RevD.01 24-Apr-2013

 --------------------
 #p B2PLYPD3/Def2QZVP
 --------------------

 ------------
 cyanomethane
 ------------
 Symbolic Z-matrix:
 Charge =  0 Multiplicity = 1

                         Standard orientation:
 ---------------------------------------------------------------------
 Center     Atomic      Atomic             Coordinates (Angstroms)
 Number     Number       Type             X           Y           Z
 ---------------------------------------------------------------------
      1          6           0       -1.206124   -0.006183    0.015860
      2          6           0        0.292149    0.003939   -0.062362
      3          7           0        1.442734    0.005624    0.035655
      4          1           0       -1.596765   -0.060233    0.968101
      5          1           0       -1.425671   -0.896862   -0.510407
      6          1           0       -1.592850    0.931190   -0.428264
 ---------------------------------------------------------------------

 SCF Done:  E(RB2PLYPD3) =  -132.526966949     A.U. after   12 cycles
 E2(B2PLYPD3) =    -0.1804733947D+00 E(B2PLYPD3) =    -0.13270744034392D+03

 The electronic state is 1-A.
 Alpha  occ. eigenvalues --  -14.84230 -10.66833 -10.66371  -1.04031  -0.89199
 Alpha  occ. eigenvalues --   -0.59658  -0.54990  -0.53141  -0.44694  -0.39249
 Alpha  occ. eigenvalues --   -0.39185
 Alpha virt. eigenvalues --    0.03750   0.07681   0.08866   0.10080   0.11012
 Alpha virt. eigenvalues --    0.11486   0.15109   0.15649   0.16915   0.20018
 Alpha virt. eigenvalues --    0.20139   0.24838   0.32364   0.34633   0.35001

 Mulliken charges:
               1
     1  C   -0.086706
     2  C   -0.001304
     3  N   -0.206076
     4  H    0.095838
     5  H    0.102251
     6  H    0.095998
 Sum of Mulliken charges =   0.00000

 Dipole moment (field-independent basis, Debye):
    X=             -4.1223    Y=             -0.0203    Z=             -0.0164  Tot=              4.1224
 Quadrupole moment (field-independent basis, Debye-Ang):
   XX=            -21.0373   YY=            -17.5521   ZZ=            -17.9203
   XY=             -0.1351   XZ=             -0.3553   YZ=              0.0391

 Normal termination of Gaussian 09 at Wed Aug 26 23:48:45 2020.
