 Gaussian 09, Revision D.01,
 Gaussian 09:  ES64L-G09RevD.01 24-Apr-2013

 --------------------
 #p B2PLYPD3/Def2QZVP
 --------------------

 ------------
 cyanomethane
 ------------
 Symbolic Z-matrix:
 Charge =  0 Multiplicity = 1

                         Standard orientation:
 ---------------------------------------------------------------------
 Center     Atomic      Atomic             Coordinates (Angstroms)
 Number     Number       Type             X           Y           Z
 ---------------------------------------------------------------------
      1          6           0        1.174959   -0.013086    0.002397
      2          6           0       -0.277782   -0.013490    0.005986
      3          7           0       -1.430474    0.010032   -0.004249
      4          1           0        1.567935    0.958605   -0.380547
      5          1           0        1.533676   -0.762228   -0.617235
      6          1           0        1.528649   -0.107148    0.977228
 ---------------------------------------------------------------------

 SCF Done:  E(RB2PLYPD3) =  -132.532414941     A.U. after   11 cycles
 E2(B2PLYPD3) =    -0.1800338589D+00 E(B2PLYPD3) =    -0.13271244880037D+03

 The electronic state is 1-A.
 Alpha  occ. eigenvalues --  -14.84130 -10.66284 -10.66155  -1.04191  -0.89922
 Alpha  occ. eigenvalues --   -0.60156  -0.55706  -0.53289  -0.44784  -0.39280
 Alpha  occ. eigenvalues --   -0.38978
 Alpha virt. eigenvalues --    0.03827   0.07862   0.08594   0.10192   0.11240
 Alpha virt. eigenvalues --    0.11632   0.15516   0.16327   0.16478   0.20041
 Alpha virt. eigenvalues --    0.20146   0.25426   0.32870   0.34310   0.35711

 Mulliken charges:
               1
     1  C   -0.073447
     2  C   -0.002004
     3  N   -0.206151
     4  H    0.088425
     5  H    0.097270
     6  H    0.095905
 Sum of Mulliken charges =   0.00000

 Dipole moment (field-independent basis, Debye):
    X=              4.1321    Y=             -0.0128    Z=              0.0115  Tot=              4.1322
 Quadrupole moment (field-independent basis, Debye-Ang):
   XX=            -20.9023   YY=            -17.7490   ZZ=            -17.6893
   XY=              0.0934   XZ=             -0.0279   YZ=              0.0619

 Normal termination of Gaussian 09 at Thu Aug 27 00:12:15 2020.
