 Gaussian 09, Revision D.01,
 Gaussian 09:  ES64L-G09RevD.01 24-Apr-2013

 --------------------
 #p B2PLYPD3/Def2QZVP
 --------------------

 ------------
 cyanomethane
 ------------
 Symbolic Z-matrix:
 Charge =  0 Multiplicity = 1

                         Standard orientation:
 ---------------------------------------------------------------------
 Center     Atomic      Atomic             Coordinates (Angstroms)
 Number     Number       Type             X           Y           Z
 ---------------------------------------------------------------------
      1          6           0        1.175335   -0.001701    0.009157
      2          6           0       -0.285837    0.004499   -0.019082
      3          7           0       -1.433826   -0.002425    0.010111
      4          1           0        1.581046   -0.352127    0.955542
      5          1           0        1.560989    1.012147   -0.179817
      6          1           0        1.557757   -0.659829   -0.786951
 ---------------------------------------------------------------------

 SCF Done:  E(RB2PLYPD3) =  -132.535535725     A.U. after   12 cycles
 E2(B2PLYPD3) =    -0.1800638915D+00 E(B2PLYPD3) =    -0.13271559961630D+03

 The electronic state is 1-A.
 Alpha  occ. eigenvalues --  -14.84088 -10.67345 -10.66160  -1.04393  -0.88902
 Alpha  occ. eigenvalues --   -0.59844  -0.53630  -0.53412  -0.44825  -0.39283
 Alpha  occ. eigenvalues --   -0.39203
 Alpha virt. eigenvalues --    0.03722   0.07813   0.07963   0.10174   0.11533
 Alpha virt. eigenvalues --    0.11562   0.15419   0.16202   0.16826   0.20045
 Alpha virt. eigenvalues --    0.20063   0.25324   0.32715   0.34366   0.34784

 Mulliken charges:
               1
     1  C   -0.082650
     2  C   -0.001119
     3  N   -0.202161
     4  H    0.096916
     5  H    0.094807
     6  H    0.094207
 Sum of Mulliken charges =   0.00000

 Dipole moment (field-independent basis, Debye):
    X=              4.1197    Y=              0.0019    Z=             -0.0172  Tot=              4.1198
 Quadrupole moment (field-independent basis, Debye-Ang):
   XX=            -20.9212   YY=            -17.7710   ZZ=            -17.7762
   XY=             -0.0216   XZ=              0.0682   YZ=             -0.0111

 Normal termination of Gaussian 09 at Wed Aug 26 23:59:49 2020.
