 Gaussian 09, Revision D.01,
 Gaussian 09:  ES64L-G09RevD.01 24-Apr-2013

 --------------------
 #p B2PLYPD3/Def2QZVP
 --------------------

 ------------
 cyanomethane
 ------------
 Symbolic Z-matrix:
 Charge =  0 Multiplicity = 1

                         Standard orientation:
 ---------------------------------------------------------------------
 Center     Atomic      Atomic             Coordinates (Angstroms)
 Number     Number       Type             X           Y           Z
 ---------------------------------------------------------------------
      1          6           0       -1.178148   -0.014586    0.005868
      2          6           0        0.287878    0.009499   -0.014665
      3          7           0        1.435304   -0.002475    0.006477
      4          1           0       -1.554842   -0.475061    0.906607
      5          1           0       -1.569283   -0.526002   -0.873257
      6          1           0       -1.581383    1.048916   -0.025912
 ---------------------------------------------------------------------

 SCF Done:  E(RB2PLYPD3) =  -132.534332025     A.U. after   11 cycles
 E2(B2PLYPD3) =    -0.1800813077D+00 E(B2PLYPD3) =    -0.13271441333265D+03

 The electronic state is 1-A.
 Alpha  occ. eigenvalues --  -14.84074 -10.67566 -10.66165  -1.04411  -0.88712
 Alpha  occ. eigenvalues --   -0.59663  -0.54154  -0.52656  -0.44815  -0.39385
 Alpha  occ. eigenvalues --   -0.39145
 Alpha virt. eigenvalues --    0.03678   0.07660   0.08050   0.10188   0.11423
 Alpha virt. eigenvalues --    0.11668   0.15358   0.16261   0.16741   0.20016
 Alpha virt. eigenvalues --    0.20067   0.25224   0.32484   0.33967   0.35051

 Mulliken charges:
               1
     1  C   -0.085704
     2  C   -0.001292
     3  N   -0.201545
     4  H    0.099762
     5  H    0.097554
     6  H    0.091225
 Sum of Mulliken charges =   0.00000

 Dipole moment (field-independent basis, Debye):
    X=             -4.1173    Y=              0.0010    Z=             -0.0090  Tot=              4.1173
 Quadrupole moment (field-independent basis, Debye-Ang):
   XX=            -20.9533   YY=            -17.8255   ZZ=            -17.7307
   XY=             -0.0025   XZ=             -0.0259   YZ=             -0.0063

 Normal termination of Gaussian 09 at Thu Aug 27 00:08:09 2020.
