 Gaussian 09, Revision D.01,
 Gaussian 09:  ES64L-G09RevD.01 24-Apr-2013

 --------------------
 #p B2PLYPD3/Def2QZVP
 --------------------

 ------------
 cyanomethane
 ------------
 Symbolic Z-matrix:
 Charge =  0 Multiplicity = 1

                         Standard orientation:
 ---------------------------------------------------------------------
 Center     Atomic      Atomic             Coordinates (Angstroms)
 Number     Number       Type             X           Y           Z
 ---------------------------------------------------------------------
      1          6           0       -1.176906    0.004352    0.017678
      2          6           0        0.262761    0.003773   -0.032522
      3          7           0        1.432851   -0.002684    0.009972
      4          1           0       -1.571841   -0.638725   -0.823438
      5          1           0       -1.518940    1.035767   -0.113245
      6          1           0       -1.454309   -0.427005    0.955944
 ---------------------------------------------------------------------

 SCF Done:  E(RB2PLYPD3) =  -132.531297534     A.U. after   12 cycles
 E2(B2PLYPD3) =    -0.1820049632D+00 E(B2PLYPD3) =    -0.13271330249689D+03

 The electronic state is 1-A.
 Alpha  occ. eigenvalues --  -14.84480 -10.67317 -10.66515  -1.03440  -0.89564
 Alpha  occ. eigenvalues --   -0.59199  -0.55154  -0.53481  -0.44715  -0.38571
 Alpha  occ. eigenvalues --   -0.38389
 Alpha virt. eigenvalues --    0.03695   0.07342   0.07792   0.10110   0.11252
 Alpha virt. eigenvalues --    0.11455   0.15320   0.15859   0.15983   0.20169
 Alpha virt. eigenvalues --    0.20205   0.25645   0.32393   0.33954   0.34833

 Mulliken charges:
               1
     1  C   -0.097119
     2  C    0.000896
     3  N   -0.215595
     4  H    0.098078
     5  H    0.105292
     6  H    0.108448
 Sum of Mulliken charges =   0.00000

 Dipole moment (field-independent basis, Debye):
    X=             -4.1249    Y=             -0.0022    Z=             -0.0056  Tot=              4.1249
 Quadrupole moment (field-independent basis, Debye-Ang):
   XX=            -21.2996   YY=            -17.6850   ZZ=            -17.7589
   XY=              0.0336   XZ=              0.0309   YZ=             -0.0600

 Normal termination of Gaussian 09 at Wed Aug 26 15:55:57 2020.
