 Gaussian 09, Revision D.01,
 Gaussian 09:  ES64L-G09RevD.01 24-Apr-2013

 --------------------
 #p B2PLYPD3/Def2QZVP
 --------------------

 ------------
 cyanomethane
 ------------
 Symbolic Z-matrix:
 Charge =  0 Multiplicity = 1

                         Standard orientation:
 ---------------------------------------------------------------------
 Center     Atomic      Atomic             Coordinates (Angstroms)
 Number     Number       Type             X           Y           Z
 ---------------------------------------------------------------------
      1          6           0       -1.188274   -0.010274    0.031058
      2          6           0        0.281264    0.014059   -0.077305
      3          7           0        1.414006   -0.007261    0.035834
      4          1           0       -1.461278   -0.073692    0.985990
      5          1           0       -1.508025   -0.869564   -0.551242
      6          1           0       -1.486680    0.971373   -0.408107
 ---------------------------------------------------------------------

 SCF Done:  E(RB2PLYPD3) =  -132.526150986     A.U. after   12 cycles
 E2(B2PLYPD3) =    -0.1790332382D+00 E(B2PLYPD3) =    -0.13270518422447D+03

 The electronic state is 1-A.
 Alpha  occ. eigenvalues --  -14.83551 -10.66520 -10.65530  -1.04649  -0.89697
 Alpha  occ. eigenvalues --   -0.59197  -0.55095  -0.54111  -0.44519  -0.39512
 Alpha  occ. eigenvalues --   -0.39299
 Alpha virt. eigenvalues --    0.03819   0.08409   0.08731   0.10052   0.11471
 Alpha virt. eigenvalues --    0.11604   0.15402   0.15447   0.16441   0.19984
 Alpha virt. eigenvalues --    0.20053   0.25525   0.32593   0.34154   0.35373

 Mulliken charges:
               1
     1  C   -0.100318
     2  C   -0.005829
     3  N   -0.200258
     4  H    0.106333
     5  H    0.101660
     6  H    0.098412
 Sum of Mulliken charges =   0.00000

 Dipole moment (field-independent basis, Debye):
    X=             -4.0396    Y=              0.0085    Z=             -0.0327  Tot=              4.0397
 Quadrupole moment (field-independent basis, Debye-Ang):
   XX=            -21.3533   YY=            -17.4641   ZZ=            -17.6466
   XY=              0.0651   XZ=             -0.2279   YZ=              0.0231

 Normal termination of Gaussian 09 at Wed Aug 26 23:39:59 2020.
