 Gaussian 09, Revision D.01,
 Gaussian 09:  ES64L-G09RevD.01 24-Apr-2013

 --------------------
 #p B2PLYPD3/Def2QZVP
 --------------------

 ------------
 cyanomethane
 ------------
 Symbolic Z-matrix:
 Charge =  0 Multiplicity = 1

                         Standard orientation:
 ---------------------------------------------------------------------
 Center     Atomic      Atomic             Coordinates (Angstroms)
 Number     Number       Type             X           Y           Z
 ---------------------------------------------------------------------
      1          6           0       -1.153816   -0.013243    0.025409
      2          6           0        0.280684    0.001550   -0.047433
      3          7           0        1.417910    0.010237    0.025578
      4          1           0       -1.560689   -0.370460    0.915067
      5          1           0       -1.444539   -0.649056   -0.791161
      6          1           0       -1.681353    1.018021   -0.170807
 ---------------------------------------------------------------------

 SCF Done:  E(RB2PLYPD3) =  -132.526957302     A.U. after   12 cycles
 E2(B2PLYPD3) =    -0.1795733165D+00 E(B2PLYPD3) =    -0.13270653061891D+03

 The electronic state is 1-A.
 Alpha  occ. eigenvalues --  -14.83850 -10.66983 -10.65816  -1.04863  -0.89473
 Alpha  occ. eigenvalues --   -0.60664  -0.54642  -0.52186  -0.44873  -0.39475
 Alpha  occ. eigenvalues --   -0.39125
 Alpha virt. eigenvalues --    0.03629   0.07144   0.08461   0.10062   0.11667
 Alpha virt. eigenvalues --    0.11962   0.15489   0.15895   0.17693   0.19963
 Alpha virt. eigenvalues --    0.20194   0.25983   0.32353   0.34100   0.35378

 Mulliken charges:
               1
     1  C   -0.083169
     2  C    0.002586
     3  N   -0.198258
     4  H    0.099106
     5  H    0.094245
     6  H    0.085490
 Sum of Mulliken charges =   0.00000

 Dipole moment (field-independent basis, Debye):
    X=             -4.0779    Y=             -0.0576    Z=             -0.0472  Tot=              4.0786
 Quadrupole moment (field-independent basis, Debye-Ang):
   XX=            -20.8395   YY=            -17.7952   ZZ=            -17.7106
   XY=             -0.1324   XZ=             -0.1878   YZ=              0.0062

 Normal termination of Gaussian 09 at Wed Aug 26 22:30:31 2020.
