 Gaussian 09, Revision D.01,
 Gaussian 09:  ES64L-G09RevD.01 24-Apr-2013

 --------------------
 #p B2PLYPD3/Def2QZVP
 --------------------

 ------------
 cyanomethane
 ------------
 Symbolic Z-matrix:
 Charge =  0 Multiplicity = 1

                         Standard orientation:
 ---------------------------------------------------------------------
 Center     Atomic      Atomic             Coordinates (Angstroms)
 Number     Number       Type             X           Y           Z
 ---------------------------------------------------------------------
      1          6           0        1.148107    0.026417    0.030874
      2          6           0       -0.262441   -0.009121   -0.055698
      3          7           0       -1.428206   -0.003755    0.016185
      4          1           0        1.513434    1.029419   -0.150898
      5          1           0        1.708783   -0.704402   -0.738370
      6          1           0        1.461230   -0.402511    0.924913
 ---------------------------------------------------------------------

 SCF Done:  E(RB2PLYPD3) =  -132.522024951     A.U. after   12 cycles
 E2(B2PLYPD3) =    -0.1821651681D+00 E(B2PLYPD3) =    -0.13270419011912D+03

 The electronic state is 1-A.
 Alpha  occ. eigenvalues --  -14.84619 -10.67196 -10.66531  -1.03799  -0.89807
 Alpha  occ. eigenvalues --   -0.60820  -0.55921  -0.51315  -0.44986  -0.38830
 Alpha  occ. eigenvalues --   -0.38135
 Alpha virt. eigenvalues --    0.03573   0.06224   0.07705   0.10069   0.11219
 Alpha virt. eigenvalues --    0.12033   0.15461   0.16251   0.16851   0.20041
 Alpha virt. eigenvalues --    0.20224   0.26309   0.31335   0.34314   0.35483

 Mulliken charges:
               1
     1  C   -0.079440
     2  C    0.006916
     3  N   -0.212488
     4  H    0.104234
     5  H    0.078348
     6  H    0.102430
 Sum of Mulliken charges =   0.00000

 Dipole moment (field-independent basis, Debye):
    X=              4.1169    Y=             -0.0126    Z=              0.0264  Tot=              4.1170
 Quadrupole moment (field-independent basis, Debye-Ang):
   XX=            -20.9140   YY=            -17.6130   ZZ=            -18.0598
   XY=             -0.1700   XZ=              0.0294   YZ=             -0.1727

 Normal termination of Gaussian 09 at Wed Aug 26 21:18:01 2020.
