 Gaussian 09, Revision D.01,
 Gaussian 09:  ES64L-G09RevD.01 24-Apr-2013

 --------------------
 #p B2PLYPD3/Def2QZVP
 --------------------

 ------------
 cyanomethane
 ------------
 Symbolic Z-matrix:
 Charge =  0 Multiplicity = 1

                         Standard orientation:
 ---------------------------------------------------------------------
 Center     Atomic      Atomic             Coordinates (Angstroms)
 Number     Number       Type             X           Y           Z
 ---------------------------------------------------------------------
      1          6           0        1.179806    0.000452   -0.001147
      2          6           0       -0.283324   -0.018717   -0.012226
      3          7           0       -1.436772    0.010379    0.008430
      4          1           0        1.565542    1.019308   -0.060401
      5          1           0        1.533585   -0.548774   -0.824629
      6          1           0        1.579383   -0.433597    0.906255
 ---------------------------------------------------------------------

 SCF Done:  E(RB2PLYPD3) =  -132.534827809     A.U. after   11 cycles
 E2(B2PLYPD3) =    -0.1802606820D+00 E(B2PLYPD3) =    -0.13271508849085D+03

 The electronic state is 1-A.
 Alpha  occ. eigenvalues --  -14.84230 -10.66714 -10.66303  -1.04155  -0.89422
 Alpha  occ. eigenvalues --   -0.60029  -0.54593  -0.53537  -0.44827  -0.39209
 Alpha  occ. eigenvalues --   -0.39117
 Alpha virt. eigenvalues --    0.03795   0.07805   0.08360   0.10189   0.11309
 Alpha virt. eigenvalues --    0.11508   0.15431   0.16231   0.16713   0.20041
 Alpha virt. eigenvalues --    0.20123   0.25272   0.32795   0.34685   0.35113

 Mulliken charges:
               1
     1  C   -0.074712
     2  C   -0.001287
     3  N   -0.205684
     4  H    0.093110
     5  H    0.095821
     6  H    0.092751
 Sum of Mulliken charges =   0.00000

 Dipole moment (field-independent basis, Debye):
    X=              4.1381    Y=             -0.0180    Z=             -0.0139  Tot=              4.1381
 Quadrupole moment (field-independent basis, Debye-Ang):
   XX=            -20.8681   YY=            -17.7651   ZZ=            -17.7644
   XY=              0.0618   XZ=              0.0765   YZ=              0.0269

 Normal termination of Gaussian 09 at Thu Aug 27 00:05:11 2020.
