 Gaussian 09, Revision D.01,
 Gaussian 09:  ES64L-G09RevD.01 24-Apr-2013

 --------------------
 #p B2PLYPD3/Def2QZVP
 --------------------

 ------------
 cyanomethane
 ------------
 Symbolic Z-matrix:
 Charge =  0 Multiplicity = 1

                         Standard orientation:
 ---------------------------------------------------------------------
 Center     Atomic      Atomic             Coordinates (Angstroms)
 Number     Number       Type             X           Y           Z
 ---------------------------------------------------------------------
      1          6           0       -1.198375   -0.036338   -0.022003
      2          6           0        0.262710    0.049778    0.043308
      3          7           0        1.451381   -0.027685   -0.018392
      4          1           0       -1.436657    0.849214   -0.537693
      5          1           0       -1.535947    0.098896    0.947727
      6          1           0       -1.573071   -0.834960   -0.409113
 ---------------------------------------------------------------------

 SCF Done:  E(RB2PLYPD3) =  -132.510835321     A.U. after   13 cycles
 E2(B2PLYPD3) =    -0.1833889390D+00 E(B2PLYPD3) =    -0.13269422426002D+03

 The electronic state is 1-A.
 Alpha  occ. eigenvalues --  -14.85225 -10.67352 -10.65136  -1.02665  -0.91096
 Alpha  occ. eigenvalues --   -0.61371  -0.56307  -0.54659  -0.44855  -0.38437
 Alpha  occ. eigenvalues --   -0.38078
 Alpha virt. eigenvalues --    0.03881   0.07309   0.08290   0.09903   0.11017
 Alpha virt. eigenvalues --    0.11191   0.14966   0.15532   0.17156   0.20282
 Alpha virt. eigenvalues --    0.20366   0.25532   0.32591   0.34640   0.35903

 Mulliken charges:
               1
     1  C   -0.068026
     2  C    0.008203
     3  N   -0.224723
     4  H    0.094875
     5  H    0.089936
     6  H    0.099734
 Sum of Mulliken charges =   0.00000

 Dipole moment (field-independent basis, Debye):
    X=             -4.1797    Y=              0.0599    Z=              0.0381  Tot=              4.1803
 Quadrupole moment (field-independent basis, Debye-Ang):
   XX=            -20.9253   YY=            -17.6731   ZZ=            -17.8806
   XY=              0.1536   XZ=             -0.0002   YZ=              0.0381

 Normal termination of Gaussian 09 at Wed Aug 26 23:28:41 2020.
