 Gaussian 09, Revision D.01,
 Gaussian 09:  ES64L-G09RevD.01 24-Apr-2013

 --------------------
 #p B2PLYPD3/Def2QZVP
 --------------------

 ------------
 cyanomethane
 ------------
 Symbolic Z-matrix:
 Charge =  0 Multiplicity = 1

                         Standard orientation:
 ---------------------------------------------------------------------
 Center     Atomic      Atomic             Coordinates (Angstroms)
 Number     Number       Type             X           Y           Z
 ---------------------------------------------------------------------
      1          6           0        1.187645   -0.025810   -0.020264
      2          6           0       -0.293255    0.003405   -0.061744
      3          7           0       -1.441874   -0.000522    0.042685
      4          1           0        1.690122    0.070384    1.002016
      5          1           0        1.497826    0.938912   -0.429168
      6          1           0        1.538829   -0.871209   -0.379592
 ---------------------------------------------------------------------

 SCF Done:  E(RB2PLYPD3) =  -132.516871813     A.U. after   12 cycles
 E2(B2PLYPD3) =    -0.1807011047D+00 E(B2PLYPD3) =    -0.13269757291779D+03

 The electronic state is 1-A.
 Alpha  occ. eigenvalues --  -14.84349 -10.66826 -10.66455  -1.04235  -0.89336
 Alpha  occ. eigenvalues --   -0.60468  -0.56955  -0.50443  -0.44902  -0.39637
 Alpha  occ. eigenvalues --   -0.38735
 Alpha virt. eigenvalues --    0.03426   0.07031   0.08991   0.10073   0.10761
 Alpha virt. eigenvalues --    0.11911   0.15341   0.16223   0.17346   0.19861
 Alpha virt. eigenvalues --    0.20276   0.25095   0.32422   0.33107   0.36023

 Mulliken charges:
               1
     1  C   -0.073705
     2  C    0.003567
     3  N   -0.203813
     4  H    0.076045
     5  H    0.094118
     6  H    0.103787
 Sum of Mulliken charges =   0.00000

 Dipole moment (field-independent basis, Debye):
    X=              4.1297    Y=              0.0298    Z=             -0.0234  Tot=              4.1299
 Quadrupole moment (field-independent basis, Debye-Ang):
   XX=            -20.7461   YY=            -17.4581   ZZ=            -18.2187
   XY=              0.0351   XZ=              0.4806   YZ=              0.0802

 Normal termination of Gaussian 09 at Wed Aug 26 21:19:54 2020.
