 Gaussian 09, Revision D.01,
 Gaussian 09:  ES64L-G09RevD.01 24-Apr-2013

 --------------------
 #p B2PLYPD3/Def2QZVP
 --------------------

 ------------
 cyanomethane
 ------------
 Symbolic Z-matrix:
 Charge =  0 Multiplicity = 1

                         Standard orientation:
 ---------------------------------------------------------------------
 Center     Atomic      Atomic             Coordinates (Angstroms)
 Number     Number       Type             X           Y           Z
 ---------------------------------------------------------------------
      1          6           0        1.180355    0.004752    0.002237
      2          6           0       -0.278444   -0.011146   -0.025934
      3          7           0       -1.424244    0.009138    0.019822
      4          1           0        1.598519   -0.196142    0.981890
      5          1           0        1.535442    0.984795   -0.337507
      6          1           0        1.424282   -0.814255   -0.640953
 ---------------------------------------------------------------------

 SCF Done:  E(RB2PLYPD3) =  -132.532971776     A.U. after   12 cycles
 E2(B2PLYPD3) =    -0.1798302891D+00 E(B2PLYPD3) =    -0.13271280206505D+03

 The electronic state is 1-A.
 Alpha  occ. eigenvalues --  -14.83849 -10.66948 -10.65898  -1.04360  -0.89465
 Alpha  occ. eigenvalues --   -0.59305  -0.55078  -0.53383  -0.44638  -0.39239
 Alpha  occ. eigenvalues --   -0.39087
 Alpha virt. eigenvalues --    0.03771   0.07795   0.08664   0.10169   0.11433
 Alpha virt. eigenvalues --    0.11627   0.15277   0.15591   0.16869   0.20038
 Alpha virt. eigenvalues --    0.20134   0.25362   0.32879   0.34431   0.34809

 Mulliken charges:
               1
     1  C   -0.094151
     2  C   -0.003391
     3  N   -0.203731
     4  H    0.096539
     5  H    0.102129
     6  H    0.102604
 Sum of Mulliken charges =   0.00000

 Dipole moment (field-independent basis, Debye):
    X=              4.0988    Y=             -0.0306    Z=             -0.0171  Tot=              4.0990
 Quadrupole moment (field-independent basis, Debye-Ang):
   XX=            -21.1663   YY=            -17.5215   ZZ=            -17.8117
   XY=              0.0793   XZ=              0.2583   YZ=              0.0170

 Normal termination of Gaussian 09 at Wed Aug 26 13:17:49 2020.
