 Gaussian 09, Revision D.01,
 Gaussian 09:  ES64L-G09RevD.01 24-Apr-2013

 --------------------
 #p B2PLYPD3/Def2QZVP
 --------------------

 ------------
 cyanomethane
 ------------
 Symbolic Z-matrix:
 Charge =  0 Multiplicity = 1

                         Standard orientation:
 ---------------------------------------------------------------------
 Center     Atomic      Atomic             Coordinates (Angstroms)
 Number     Number       Type             X           Y           Z
 ---------------------------------------------------------------------
      1          6           0       -1.175364   -0.016806   -0.010192
      2          6           0        0.288402    0.058695    0.005747
      3          7           0        1.411676   -0.012992   -0.002554
      4          1           0       -1.470185   -0.291516    0.990701
      5          1           0       -1.376876   -0.879942   -0.656866
      6          1           0       -1.712898    1.011069   -0.289281
 ---------------------------------------------------------------------

 SCF Done:  E(RB2PLYPD3) =  -132.525847509     A.U. after   12 cycles
 E2(B2PLYPD3) =    -0.1786371941D+00 E(B2PLYPD3) =    -0.13270448470271D+03

 The electronic state is 1-A.
 Alpha  occ. eigenvalues --  -14.83202 -10.68092 -10.65272  -1.05204  -0.88556
 Alpha  occ. eigenvalues --   -0.58202  -0.54145  -0.52670  -0.44514  -0.39681
 Alpha  occ. eigenvalues --   -0.39512
 Alpha virt. eigenvalues --    0.03519   0.07460   0.08645   0.10262   0.11857
 Alpha virt. eigenvalues --    0.12044   0.15105   0.15758   0.16840   0.19867
 Alpha virt. eigenvalues --    0.20080   0.25378   0.31527   0.33922   0.34841

 Mulliken charges:
               1
     1  C   -0.112255
     2  C   -0.007316
     3  N   -0.190806
     4  H    0.101481
     5  H    0.108821
     6  H    0.100075
 Sum of Mulliken charges =   0.00000

 Dipole moment (field-independent basis, Debye):
    X=             -4.0440    Y=             -0.0252    Z=              0.0573  Tot=              4.0444
 Quadrupole moment (field-independent basis, Debye-Ang):
   XX=            -21.3034   YY=            -17.3893   ZZ=            -17.8614
   XY=             -0.0980   XZ=             -0.1088   YZ=              0.0413

 Normal termination of Gaussian 09 at Wed Aug 26 22:16:52 2020.
