 Gaussian 09, Revision D.01,
 Gaussian 09:  ES64L-G09RevD.01 24-Apr-2013

 --------------------
 #p B2PLYPD3/Def2QZVP
 --------------------

 ------------
 cyanomethane
 ------------
 Symbolic Z-matrix:
 Charge =  0 Multiplicity = 1

                         Standard orientation:
 ---------------------------------------------------------------------
 Center     Atomic      Atomic             Coordinates (Angstroms)
 Number     Number       Type             X           Y           Z
 ---------------------------------------------------------------------
      1          6           0       -1.174601   -0.006958    0.000184
      2          6           0        0.286682    0.026613    0.001295
      3          7           0        1.434872   -0.013693   -0.001278
      4          1           0       -1.566141   -0.291627    0.990256
      5          1           0       -1.581384   -0.724569   -0.740577
      6          1           0       -1.569064    0.994115   -0.249605
 ---------------------------------------------------------------------

 SCF Done:  E(RB2PLYPD3) =  -132.534951883     A.U. after   12 cycles
 E2(B2PLYPD3) =    -0.1802352200D+00 E(B2PLYPD3) =    -0.13271518710337D+03

 The electronic state is 1-A.
 Alpha  occ. eigenvalues --  -14.84129 -10.67597 -10.66203  -1.04387  -0.88697
 Alpha  occ. eigenvalues --   -0.59779  -0.53406  -0.53202  -0.44849  -0.39235
 Alpha  occ. eigenvalues --   -0.39210
 Alpha virt. eigenvalues --    0.03662   0.07630   0.07893   0.10166   0.11527
 Alpha virt. eigenvalues --    0.11592   0.15407   0.16247   0.16813   0.20019
 Alpha virt. eigenvalues --    0.20077   0.25341   0.32651   0.34386   0.34508

 Mulliken charges:
               1
     1  C   -0.084599
     2  C   -0.000450
     3  N   -0.201930
     4  H    0.096207
     5  H    0.096105
     6  H    0.094667
 Sum of Mulliken charges =   0.00000

 Dipole moment (field-independent basis, Debye):
    X=             -4.1166    Y=              0.0206    Z=              0.0036  Tot=              4.1166
 Quadrupole moment (field-independent basis, Debye-Ang):
   XX=            -20.9250   YY=            -17.7898   ZZ=            -17.7932
   XY=              0.0840   XZ=              0.0135   YZ=             -0.0035

 Normal termination of Gaussian 09 at Thu Aug 27 00:02:57 2020.
