 Gaussian 09, Revision D.01,
 Gaussian 09:  ES64L-G09RevD.01 24-Apr-2013

 --------------------
 #p B2PLYPD3/Def2QZVP
 --------------------

 ------------
 cyanomethane
 ------------
 Symbolic Z-matrix:
 Charge =  0 Multiplicity = 1

                         Standard orientation:
 ---------------------------------------------------------------------
 Center     Atomic      Atomic             Coordinates (Angstroms)
 Number     Number       Type             X           Y           Z
 ---------------------------------------------------------------------
      1          6           0        1.211306    0.014928    0.001024
      2          6           0       -0.280304   -0.020791   -0.043671
      3          7           0       -1.443761    0.002233    0.017019
      4          1           0        1.415779    1.048334   -0.020046
      5          1           0        1.624883   -0.570583   -0.774585
      6          1           0        1.479646   -0.458201    0.931373
 ---------------------------------------------------------------------

 SCF Done:  E(RB2PLYPD3) =  -132.529796005     A.U. after   12 cycles
 E2(B2PLYPD3) =    -0.1811828621D+00 E(B2PLYPD3) =    -0.13271097886724D+03

 The electronic state is 1-A.
 Alpha  occ. eigenvalues --  -14.84327 -10.66813 -10.66498  -1.03510  -0.89524
 Alpha  occ. eigenvalues --   -0.58715  -0.55839  -0.53940  -0.44547  -0.38959
 Alpha  occ. eigenvalues --   -0.38760
 Alpha virt. eigenvalues --    0.03784   0.08189   0.08596   0.10275   0.10892
 Alpha virt. eigenvalues --    0.11256   0.14854   0.15658   0.16104   0.20081
 Alpha virt. eigenvalues --    0.20196   0.24707   0.32320   0.34363   0.35481

 Mulliken charges:
               1
     1  C   -0.092960
     2  C   -0.004566
     3  N   -0.213452
     4  H    0.110832
     5  H    0.099762
     6  H    0.100384
 Sum of Mulliken charges =   0.00000

 Dipole moment (field-independent basis, Debye):
    X=              4.1530    Y=             -0.0226    Z=             -0.0051  Tot=              4.1531
 Quadrupole moment (field-independent basis, Debye-Ang):
   XX=            -21.2381   YY=            -17.5397   ZZ=            -17.8652
   XY=             -0.1816   XZ=              0.0280   YZ=              0.0067

 Normal termination of Gaussian 09 at Wed Aug 26 22:00:42 2020.
