 Gaussian 09, Revision D.01,
 Gaussian 09:  ES64L-G09RevD.01 24-Apr-2013

 --------------------
 #p B2PLYPD3/Def2QZVP
 --------------------

 ------------
 cyanomethane
 ------------
 Symbolic Z-matrix:
 Charge =  0 Multiplicity = 1

                         Standard orientation:
 ---------------------------------------------------------------------
 Center     Atomic      Atomic             Coordinates (Angstroms)
 Number     Number       Type             X           Y           Z
 ---------------------------------------------------------------------
      1          6           0        1.174635   -0.003871    0.011774
      2          6           0       -0.278443    0.003867   -0.020275
      3          7           0       -1.440048   -0.001111    0.008651
      4          1           0        1.575444    1.036037   -0.121892
      5          1           0        1.571566   -0.621008   -0.808508
      6          1           0        1.556174   -0.407226    0.920850
 ---------------------------------------------------------------------

 SCF Done:  E(RB2PLYPD3) =  -132.533594161     A.U. after   11 cycles
 E2(B2PLYPD3) =    -0.1812427806D+00 E(B2PLYPD3) =    -0.13271483694200D+03

 The electronic state is 1-A.
 Alpha  occ. eigenvalues --  -14.84481 -10.67294 -10.66552  -1.03877  -0.89123
 Alpha  occ. eigenvalues --   -0.60178  -0.53940  -0.53215  -0.44898  -0.38953
 Alpha  occ. eigenvalues --   -0.38830
 Alpha virt. eigenvalues --    0.03706   0.07473   0.07688   0.10133   0.11413
 Alpha virt. eigenvalues --    0.11460   0.15435   0.16233   0.16659   0.20109
 Alpha virt. eigenvalues --    0.20123   0.25454   0.32544   0.34164   0.34908

 Mulliken charges:
               1
     1  C   -0.079647
     2  C    0.001874
     3  N   -0.208896
     4  H    0.094430
     5  H    0.093707
     6  H    0.098532
 Sum of Mulliken charges =   0.00000

 Dipole moment (field-independent basis, Debye):
    X=              4.1391    Y=             -0.0138    Z=             -0.0079  Tot=              4.1391
 Quadrupole moment (field-independent basis, Debye-Ang):
   XX=            -20.9170   YY=            -17.7751   ZZ=            -17.8570
   XY=             -0.0325   XZ=              0.0404   YZ=             -0.0238

 Normal termination of Gaussian 09 at Thu Aug 27 00:11:10 2020.
