 Gaussian 09, Revision D.01,
 Gaussian 09:  ES64L-G09RevD.01 24-Apr-2013

 --------------------
 #p B2PLYPD3/Def2QZVP
 --------------------

 ------------
 cyanomethane
 ------------
 Symbolic Z-matrix:
 Charge =  0 Multiplicity = 1

                         Standard orientation:
 ---------------------------------------------------------------------
 Center     Atomic      Atomic             Coordinates (Angstroms)
 Number     Number       Type             X           Y           Z
 ---------------------------------------------------------------------
      1          6           0        1.188325    0.013596   -0.014400
      2          6           0       -0.271926    0.048759    0.022279
      3          7           0       -1.421159   -0.030670   -0.013184
      4          1           0        1.428580    0.971606   -0.019937
      5          1           0        1.546368   -0.593302   -0.830183
      6          1           0        1.474771   -0.537743    0.895134
 ---------------------------------------------------------------------

 SCF Done:  E(RB2PLYPD3) =  -132.523728139     A.U. after   12 cycles
 E2(B2PLYPD3) =    -0.1800991101D+00 E(B2PLYPD3) =    -0.13270382724909D+03

 The electronic state is 1-A.
 Alpha  occ. eigenvalues --  -14.83907 -10.66159 -10.65909  -1.04098  -0.90333
 Alpha  occ. eigenvalues --   -0.58820  -0.57435  -0.53261  -0.44546  -0.39239
 Alpha  occ. eigenvalues --   -0.38798
 Alpha virt. eigenvalues --    0.03764   0.07820   0.09377   0.10114   0.10948
 Alpha virt. eigenvalues --    0.11714   0.15173   0.15548   0.16479   0.19998
 Alpha virt. eigenvalues --    0.20233   0.25340   0.32917   0.33866   0.35943

 Mulliken charges:
               1
     1  C   -0.094648
     2  C   -0.005410
     3  N   -0.208213
     4  H    0.111073
     5  H    0.100397
     6  H    0.096802
 Sum of Mulliken charges =   0.00000

 Dipole moment (field-independent basis, Debye):
    X=              4.0906    Y=              0.0102    Z=              0.0270  Tot=              4.0907
 Quadrupole moment (field-independent basis, Debye-Ang):
   XX=            -21.2873   YY=            -17.4178   ZZ=            -17.7768
   XY=             -0.3071   XZ=             -0.1033   YZ=              0.0082

 Normal termination of Gaussian 09 at Wed Aug 26 23:25:04 2020.
