 Gaussian 09, Revision D.01,
 Gaussian 09:  ES64L-G09RevD.01 24-Apr-2013

 --------------------
 #p B2PLYPD3/Def2QZVP
 --------------------

 ------------
 cyanomethane
 ------------
 Symbolic Z-matrix:
 Charge =  0 Multiplicity = 1

                         Standard orientation:
 ---------------------------------------------------------------------
 Center     Atomic      Atomic             Coordinates (Angstroms)
 Number     Number       Type             X           Y           Z
 ---------------------------------------------------------------------
      1          6           0        1.182619   -0.004848   -0.008401
      2          6           0       -0.275498   -0.005462    0.027039
      3          7           0       -1.440728    0.003696   -0.012905
      4          1           0        1.552389    0.032203    1.012764
      5          1           0        1.548767    0.903379   -0.533592
      6          1           0        1.541217   -0.899596   -0.500666
 ---------------------------------------------------------------------

 SCF Done:  E(RB2PLYPD3) =  -132.533905718     A.U. after   11 cycles
 E2(B2PLYPD3) =    -0.1815214921D+00 E(B2PLYPD3) =    -0.13271542721009D+03

 The electronic state is 1-A.
 Alpha  occ. eigenvalues --  -14.84502 -10.67316 -10.66583  -1.03650  -0.89171
 Alpha  occ. eigenvalues --   -0.59566  -0.54346  -0.53524  -0.44807  -0.38832
 Alpha  occ. eigenvalues --   -0.38711
 Alpha virt. eigenvalues --    0.03690   0.07528   0.07862   0.10147   0.11252
 Alpha virt. eigenvalues --    0.11393   0.15332   0.15927   0.16490   0.20119
 Alpha virt. eigenvalues --    0.20156   0.25352   0.32556   0.34217   0.34791

 Mulliken charges:
               1
     1  C   -0.086958
     2  C    0.000384
     3  N   -0.211470
     4  H    0.097562
     5  H    0.098594
     6  H    0.101888
 Sum of Mulliken charges =   0.00000

 Dipole moment (field-independent basis, Debye):
    X=              4.1404    Y=             -0.0026    Z=              0.0267  Tot=              4.1405
 Quadrupole moment (field-independent basis, Debye-Ang):
   XX=            -21.0720   YY=            -17.7310   ZZ=            -17.8270
   XY=              0.0339   XZ=             -0.0378   YZ=              0.0285

 Normal termination of Gaussian 09 at Thu Aug 27 00:13:04 2020.
