 Gaussian 09, Revision D.01,
 Gaussian 09:  ES64L-G09RevD.01 24-Apr-2013

 --------------------
 #p B2PLYPD3/Def2QZVP
 --------------------

 ------------
 cyanomethane
 ------------
 Symbolic Z-matrix:
 Charge =  0 Multiplicity = 1

                         Standard orientation:
 ---------------------------------------------------------------------
 Center     Atomic      Atomic             Coordinates (Angstroms)
 Number     Number       Type             X           Y           Z
 ---------------------------------------------------------------------
      1          6           0        1.171055   -0.015218    0.002460
      2          6           0       -0.286554    0.023098    0.022434
      3          7           0       -1.434817   -0.005658   -0.011051
      4          1           0        1.638946    1.012600   -0.248606
      5          1           0        1.522691   -0.710673   -0.755706
      6          1           0        1.575077   -0.309603    0.932305
 ---------------------------------------------------------------------

 SCF Done:  E(RB2PLYPD3) =  -132.532207362     A.U. after   11 cycles
 E2(B2PLYPD3) =    -0.1802253444D+00 E(B2PLYPD3) =    -0.13271243270650D+03

 The electronic state is 1-A.
 Alpha  occ. eigenvalues --  -14.84176 -10.67375 -10.66243  -1.04422  -0.88918
 Alpha  occ. eigenvalues --   -0.60201  -0.54173  -0.52438  -0.44898  -0.39349
 Alpha  occ. eigenvalues --   -0.39125
 Alpha virt. eigenvalues --    0.03647   0.07327   0.08157   0.10178   0.11455
 Alpha virt. eigenvalues --    0.11698   0.15443   0.16579   0.16678   0.20023
 Alpha virt. eigenvalues --    0.20063   0.25419   0.32322   0.34202   0.35021

 Mulliken charges:
               1
     1  C   -0.079322
     2  C    0.001011
     3  N   -0.202111
     4  H    0.087921
     5  H    0.096407
     6  H    0.096094
 Sum of Mulliken charges =   0.00000

 Dipole moment (field-independent basis, Debye):
    X=              4.1172    Y=             -0.0191    Z=              0.0242  Tot=              4.1173
 Quadrupole moment (field-independent basis, Debye-Ang):
   XX=            -20.8362   YY=            -17.7973   ZZ=            -17.8205
   XY=             -0.0081   XZ=             -0.0285   YZ=              0.0139

 Normal termination of Gaussian 09 at Wed Aug 26 12:04:10 2020.
