 Gaussian 09, Revision D.01,
 Gaussian 09:  ES64L-G09RevD.01 24-Apr-2013

 --------------------
 #p B2PLYPD3/Def2QZVP
 --------------------

 ------------
 cyanomethane
 ------------
 Symbolic Z-matrix:
 Charge =  0 Multiplicity = 1

                         Standard orientation:
 ---------------------------------------------------------------------
 Center     Atomic      Atomic             Coordinates (Angstroms)
 Number     Number       Type             X           Y           Z
 ---------------------------------------------------------------------
      1          6           0        1.149777   -0.011388   -0.032736
      2          6           0       -0.270226   -0.017613   -0.040239
      3          7           0       -1.428097    0.017014    0.030893
      4          1           0        1.461907   -0.844097   -0.573513
      5          1           0        1.637480   -0.131365    1.130660
      6          1           0        1.619985    1.030372   -0.335549
 ---------------------------------------------------------------------

 SCF Done:  E(RB2PLYPD3) =  -132.509286705     A.U. after   12 cycles
 E2(B2PLYPD3) =    -0.1824422978D+00 E(B2PLYPD3) =    -0.13269172900257D+03

 The electronic state is 1-A.
 Alpha  occ. eigenvalues --  -14.84492 -10.68782 -10.66399  -1.04087  -0.88828
 Alpha  occ. eigenvalues --   -0.59697  -0.55236  -0.49866  -0.44993  -0.39007
 Alpha  occ. eigenvalues --   -0.38012
 Alpha virt. eigenvalues --    0.02767   0.05342   0.07934   0.10029   0.11194
 Alpha virt. eigenvalues --    0.12317   0.15401   0.16233   0.16783   0.19913
 Alpha virt. eigenvalues --    0.20299   0.25893   0.30722   0.32349   0.34915

 Mulliken charges:
               1
     1  C   -0.101541
     2  C    0.006142
     3  N   -0.205806
     4  H    0.113556
     5  H    0.085421
     6  H    0.102227
 Sum of Mulliken charges =   0.00000

 Dipole moment (field-independent basis, Debye):
    X=              4.0701    Y=             -0.0203    Z=             -0.0524  Tot=              4.0705
 Quadrupole moment (field-independent basis, Debye-Ang):
   XX=            -21.1146   YY=            -17.6493   ZZ=            -18.0670
   XY=              0.2148   XZ=              0.2868   YZ=              0.1510

 Normal termination of Gaussian 09 at Wed Aug 26 19:46:53 2020.
