 Gaussian 09, Revision D.01,
 Gaussian 09:  ES64L-G09RevD.01 24-Apr-2013

 --------------------
 #p B2PLYPD3/Def2QZVP
 --------------------

 ------------
 cyanomethane
 ------------
 Symbolic Z-matrix:
 Charge =  0 Multiplicity = 1

                         Standard orientation:
 ---------------------------------------------------------------------
 Center     Atomic      Atomic             Coordinates (Angstroms)
 Number     Number       Type             X           Y           Z
 ---------------------------------------------------------------------
      1          6           0       -1.190052   -0.038317   -0.026259
      2          6           0        0.281004    0.070975    0.000407
      3          7           0        1.415838   -0.033099    0.000711
      4          1           0       -1.465260   -0.089109    0.993309
      5          1           0       -1.490224   -0.770725   -0.502667
      6          1           0       -1.501094    0.895574   -0.340508
 ---------------------------------------------------------------------

 SCF Done:  E(RB2PLYPD3) =  -132.507824656     A.U. after   12 cycles
 E2(B2PLYPD3) =    -0.1785492140D+00 E(B2PLYPD3) =    -0.13268637387034D+03

 The electronic state is 1-A.
 Alpha  occ. eigenvalues --  -14.83618 -10.65604 -10.64627  -1.04651  -0.91241
 Alpha  occ. eigenvalues --   -0.60795  -0.57103  -0.54260  -0.44574  -0.39780
 Alpha  occ. eigenvalues --   -0.39279
 Alpha virt. eigenvalues --    0.04014   0.09041   0.09354   0.10034   0.11259
 Alpha virt. eigenvalues --    0.11628   0.15311   0.15574   0.17097   0.19918
 Alpha virt. eigenvalues --    0.20173   0.25444   0.33238   0.34567   0.36392

 Mulliken charges:
               1
     1  C   -0.086555
     2  C   -0.003901
     3  N   -0.201760
     4  H    0.088496
     5  H    0.110382
     6  H    0.093338
 Sum of Mulliken charges =   0.00000

 Dipole moment (field-independent basis, Debye):
    X=             -4.0829    Y=              0.0748    Z=              0.0364  Tot=              4.0838
 Quadrupole moment (field-independent basis, Debye-Ang):
   XX=            -21.0013   YY=            -17.4290   ZZ=            -17.6415
   XY=              0.1247   XZ=             -0.0651   YZ=              0.0974

 Normal termination of Gaussian 09 at Wed Aug 26 22:38:20 2020.
