 Gaussian 09, Revision D.01,
 Gaussian 09:  ES64L-G09RevD.01 24-Apr-2013

 --------------------
 #p B2PLYPD3/Def2QZVP
 --------------------

 ------------
 cyanomethane
 ------------
 Symbolic Z-matrix:
 Charge =  0 Multiplicity = 1

                         Standard orientation:
 ---------------------------------------------------------------------
 Center     Atomic      Atomic             Coordinates (Angstroms)
 Number     Number       Type             X           Y           Z
 ---------------------------------------------------------------------
      1          6           0        1.176536    0.000947    0.001988
      2          6           0       -0.276822   -0.005491   -0.018745
      3          7           0       -1.441115    0.003648    0.006260
      4          1           0        1.589279    0.982723   -0.305237
      5          1           0        1.585146   -0.778439   -0.646813
      6          1           0        1.515095   -0.202554    1.008768
 ---------------------------------------------------------------------

 SCF Done:  E(RB2PLYPD3) =  -132.534172150     A.U. after   12 cycles
 E2(B2PLYPD3) =    -0.1814307801D+00 E(B2PLYPD3) =    -0.13271560292971D+03

 The electronic state is 1-A.
 Alpha  occ. eigenvalues --  -14.84528 -10.67266 -10.66608  -1.03757  -0.89178
 Alpha  occ. eigenvalues --   -0.60032  -0.53792  -0.53625  -0.44881  -0.38849
 Alpha  occ. eigenvalues --   -0.38797
 Alpha virt. eigenvalues --    0.03716   0.07469   0.07708   0.10156   0.11338
 Alpha virt. eigenvalues --    0.11449   0.15412   0.16175   0.16595   0.20112
 Alpha virt. eigenvalues --    0.20150   0.25426   0.32550   0.34524   0.34634

 Mulliken charges:
               1
     1  C   -0.080485
     2  C    0.001481
     3  N   -0.210334
     4  H    0.096097
     5  H    0.095907
     6  H    0.097333
 Sum of Mulliken charges =   0.00000

 Dipole moment (field-independent basis, Debye):
    X=              4.1459    Y=             -0.0137    Z=              0.0097  Tot=              4.1459
 Quadrupole moment (field-independent basis, Debye-Ang):
   XX=            -20.9414   YY=            -17.7691   ZZ=            -17.8577
   XY=              0.0141   XZ=              0.0178   YZ=              0.0013

 Normal termination of Gaussian 09 at Wed Aug 26 10:24:26 2020.
