 Gaussian 09, Revision D.01,
 Gaussian 09:  ES64L-G09RevD.01 24-Apr-2013

 --------------------
 #p B2PLYPD3/Def2QZVP
 --------------------

 ------------
 cyanomethane
 ------------
 Symbolic Z-matrix:
 Charge =  0 Multiplicity = 1

                         Standard orientation:
 ---------------------------------------------------------------------
 Center     Atomic      Atomic             Coordinates (Angstroms)
 Number     Number       Type             X           Y           Z
 ---------------------------------------------------------------------
      1          6           0       -1.159424   -0.005220    0.008459
      2          6           0        0.284996    0.026592    0.012670
      3          7           0        1.424080   -0.007873   -0.003790
      4          1           0       -1.590972   -0.472272    0.936585
      5          1           0       -1.489170   -0.650523   -0.899126
      6          1           0       -1.641852    1.049678   -0.137704
 ---------------------------------------------------------------------

 SCF Done:  E(RB2PLYPD3) =  -132.527457173     A.U. after   12 cycles
 E2(B2PLYPD3) =    -0.1801602298D+00 E(B2PLYPD3) =    -0.13270761740278D+03

 The electronic state is 1-A.
 Alpha  occ. eigenvalues --  -14.83852 -10.68756 -10.65886  -1.04804  -0.88060
 Alpha  occ. eigenvalues --   -0.59370  -0.52825  -0.52056  -0.44832  -0.39331
 Alpha  occ. eigenvalues --   -0.39086
 Alpha virt. eigenvalues --    0.03407   0.07038   0.07389   0.10162   0.11785
 Alpha virt. eigenvalues --    0.12043   0.15394   0.16174   0.16894   0.19995
 Alpha virt. eigenvalues --    0.20035   0.25600   0.32212   0.33178   0.34180

 Mulliken charges:
               1
     1  C   -0.104354
     2  C    0.001958
     3  N   -0.196015
     4  H    0.102490
     5  H    0.099128
     6  H    0.096793
 Sum of Mulliken charges =   0.00000

 Dipole moment (field-independent basis, Debye):
    X=             -4.0706    Y=             -0.0066    Z=              0.0001  Tot=              4.0706
 Quadrupole moment (field-independent basis, Debye-Ang):
   XX=            -21.0796   YY=            -17.7864   ZZ=            -17.7904
   XY=             -0.0043   XZ=             -0.0254   YZ=             -0.0327

 Normal termination of Gaussian 09 at Wed Aug 26 14:06:59 2020.
