 Gaussian 09, Revision D.01,
 Gaussian 09:  ES64L-G09RevD.01 24-Apr-2013

 --------------------
 #p B2PLYPD3/Def2QZVP
 --------------------

 ------------
 cyanomethane
 ------------
 Symbolic Z-matrix:
 Charge =  0 Multiplicity = 1

                         Standard orientation:
 ---------------------------------------------------------------------
 Center     Atomic      Atomic             Coordinates (Angstroms)
 Number     Number       Type             X           Y           Z
 ---------------------------------------------------------------------
      1          6           0        1.170720    0.002813   -0.009995
      2          6           0       -0.277272   -0.001344    0.011467
      3          7           0       -1.429232    0.001080   -0.003704
      4          1           0        1.556108    1.033047   -0.050467
      5          1           0        1.528861   -0.574722   -0.844800
      6          1           0        1.558966   -0.474703    0.912364
 ---------------------------------------------------------------------

 SCF Done:  E(RB2PLYPD3) =  -132.535350359     A.U. after   11 cycles
 E2(B2PLYPD3) =    -0.1803210519D+00 E(B2PLYPD3) =    -0.13271567141068D+03

 The electronic state is 1-A.
 Alpha  occ. eigenvalues --  -14.84099 -10.67191 -10.66127  -1.04229  -0.89253
 Alpha  occ. eigenvalues --   -0.59766  -0.54315  -0.53358  -0.44782  -0.39131
 Alpha  occ. eigenvalues --   -0.38978
 Alpha virt. eigenvalues --    0.03744   0.07736   0.07957   0.10163   0.11475
 Alpha virt. eigenvalues --    0.11638   0.15459   0.16154   0.16549   0.20067
 Alpha virt. eigenvalues --    0.20106   0.25522   0.32783   0.34220   0.34867

 Mulliken charges:
               1
     1  C   -0.085768
     2  C   -0.001364
     3  N   -0.204994
     4  H    0.098543
     5  H    0.099535
     6  H    0.094048
 Sum of Mulliken charges =   0.00000

 Dipole moment (field-independent basis, Debye):
    X=              4.1169    Y=             -0.0134    Z=              0.0077  Tot=              4.1169
 Quadrupole moment (field-independent basis, Debye-Ang):
   XX=            -21.0253   YY=            -17.6793   ZZ=            -17.7966
   XY=             -0.0118   XZ=              0.0097   YZ=              0.0335

 Normal termination of Gaussian 09 at Wed Aug 26 09:28:31 2020.
