 Gaussian 09, Revision D.01,
 Gaussian 09:  ES64L-G09RevD.01 24-Apr-2013

 --------------------
 #p B2PLYPD3/Def2QZVP
 --------------------

 ------------
 cyanomethane
 ------------
 Symbolic Z-matrix:
 Charge =  0 Multiplicity = 1

                         Standard orientation:
 ---------------------------------------------------------------------
 Center     Atomic      Atomic             Coordinates (Angstroms)
 Number     Number       Type             X           Y           Z
 ---------------------------------------------------------------------
      1          6           0        1.182723    0.000804    0.019299
      2          6           0       -0.275780   -0.001539   -0.022354
      3          7           0       -1.438371    0.000177    0.008926
      4          1           0        1.535625    1.029382   -0.077934
      5          1           0        1.555071   -0.568245   -0.864948
      6          1           0        1.536245   -0.457969    0.898726
 ---------------------------------------------------------------------

 SCF Done:  E(RB2PLYPD3) =  -132.533423664     A.U. after   11 cycles
 E2(B2PLYPD3) =    -0.1811802990D+00 E(B2PLYPD3) =    -0.13271460396323D+03

 The electronic state is 1-A.
 Alpha  occ. eigenvalues --  -14.84399 -10.67113 -10.66477  -1.03757  -0.89330
 Alpha  occ. eigenvalues --   -0.59642  -0.54875  -0.53314  -0.44780  -0.38966
 Alpha  occ. eigenvalues --   -0.38721
 Alpha virt. eigenvalues --    0.03753   0.07700   0.07943   0.10141   0.11240
 Alpha virt. eigenvalues --    0.11457   0.15350   0.15874   0.16549   0.20108
 Alpha virt. eigenvalues --    0.20154   0.25341   0.32526   0.34031   0.35195

 Mulliken charges:
               1
     1  C   -0.085899
     2  C   -0.000191
     3  N   -0.210610
     4  H    0.099350
     5  H    0.094188
     6  H    0.103161
 Sum of Mulliken charges =   0.00000

 Dipole moment (field-independent basis, Debye):
    X=              4.1365    Y=             -0.0022    Z=             -0.0159  Tot=              4.1365
 Quadrupole moment (field-independent basis, Debye-Ang):
   XX=            -21.0747   YY=            -17.7467   ZZ=            -17.7675
   XY=             -0.0145   XZ=              0.0199   YZ=             -0.0602

 Normal termination of Gaussian 09 at Wed Aug 26 09:44:54 2020.
