 Gaussian 09, Revision D.01,
 Gaussian 09:  ES64L-G09RevD.01 24-Apr-2013

 --------------------
 #p B2PLYPD3/Def2QZVP
 --------------------

 ------------
 cyanomethane
 ------------
 Symbolic Z-matrix:
 Charge =  0 Multiplicity = 1

                         Standard orientation:
 ---------------------------------------------------------------------
 Center     Atomic      Atomic             Coordinates (Angstroms)
 Number     Number       Type             X           Y           Z
 ---------------------------------------------------------------------
      1          6           0        1.158253    0.017001    0.024450
      2          6           0       -0.284562   -0.083079   -0.011439
      3          7           0       -1.417404    0.049478    0.007763
      4          1           0        1.638178    0.996754   -0.325967
      5          1           0        1.443930   -0.718281   -0.731160
      6          1           0        1.597578   -0.228344    0.924718
 ---------------------------------------------------------------------

 SCF Done:  E(RB2PLYPD3) =  -132.525272748     A.U. after   12 cycles
 E2(B2PLYPD3) =    -0.1798034550D+00 E(B2PLYPD3) =    -0.13270507620284D+03

 The electronic state is 1-A.
 Alpha  occ. eigenvalues --  -14.83946 -10.66845 -10.65902  -1.04843  -0.89377
 Alpha  occ. eigenvalues --   -0.60658  -0.54462  -0.52306  -0.44925  -0.39593
 Alpha  occ. eigenvalues --   -0.39031
 Alpha virt. eigenvalues --    0.03412   0.07312   0.08692   0.09901   0.11502
 Alpha virt. eigenvalues --    0.11857   0.15226   0.15833   0.18098   0.19930
 Alpha virt. eigenvalues --    0.20375   0.26178   0.33357   0.33392   0.35277

 Mulliken charges:
               1
     1  C   -0.084164
     2  C    0.005900
     3  N   -0.197969
     4  H    0.090260
     5  H    0.088916
     6  H    0.097058
 Sum of Mulliken charges =   0.00000

 Dipole moment (field-independent basis, Debye):
    X=              4.0614    Y=             -0.1095    Z=             -0.0286  Tot=              4.0630
 Quadrupole moment (field-independent basis, Debye-Ang):
   XX=            -20.8024   YY=            -17.7943   ZZ=            -17.7258
   XY=              0.3428   XZ=              0.0797   YZ=             -0.0185

 Normal termination of Gaussian 09 at Wed Aug 26 22:55:22 2020.
