 Gaussian 09, Revision D.01,
 Gaussian 09:  ES64L-G09RevD.01 24-Apr-2013

 --------------------
 #p B2PLYPD3/Def2QZVP
 --------------------

 ------------
 cyanomethane
 ------------
 Symbolic Z-matrix:
 Charge =  0 Multiplicity = 1

                         Standard orientation:
 ---------------------------------------------------------------------
 Center     Atomic      Atomic             Coordinates (Angstroms)
 Number     Number       Type             X           Y           Z
 ---------------------------------------------------------------------
      1          6           0        1.181301    0.006663   -0.000322
      2          6           0       -0.277443   -0.004696    0.027536
      3          7           0       -1.445900    0.005175   -0.010650
      4          1           0        1.601588   -0.327108    0.953661
      5          1           0        1.599384    1.011617   -0.258272
      6          1           0        1.497181   -0.732537   -0.784120
 ---------------------------------------------------------------------

 SCF Done:  E(RB2PLYPD3) =  -132.531898970     A.U. after   12 cycles
 E2(B2PLYPD3) =    -0.1820950767D+00 E(B2PLYPD3) =    -0.13271399404675D+03

 The electronic state is 1-A.
 Alpha  occ. eigenvalues --  -14.84663 -10.67887 -10.66785  -1.03562  -0.88724
 Alpha  occ. eigenvalues --   -0.59708  -0.53542  -0.53129  -0.44883  -0.38770
 Alpha  occ. eigenvalues --   -0.38606
 Alpha virt. eigenvalues --    0.03577   0.07186   0.07508   0.10147   0.11265
 Alpha virt. eigenvalues --    0.11448   0.15268   0.15927   0.16705   0.20126
 Alpha virt. eigenvalues --    0.20165   0.25336   0.32323   0.33835   0.34573

 Mulliken charges:
               1
     1  C   -0.089638
     2  C    0.003297
     3  N   -0.211841
     4  H    0.098764
     5  H    0.100400
     6  H    0.099017
 Sum of Mulliken charges =   0.00000

 Dipole moment (field-independent basis, Debye):
    X=              4.1464    Y=             -0.0223    Z=              0.0115  Tot=              4.1465
 Quadrupole moment (field-independent basis, Debye-Ang):
   XX=            -21.0290   YY=            -17.7974   ZZ=            -17.8906
   XY=              0.0493   XZ=              0.0034   YZ=             -0.0172

 Normal termination of Gaussian 09 at Wed Aug 26 13:05:22 2020.
