 Gaussian 09, Revision D.01,
 Gaussian 09:  ES64L-G09RevD.01 24-Apr-2013

 --------------------
 #p B2PLYPD3/Def2QZVP
 --------------------

 ------------
 cyanomethane
 ------------
 Symbolic Z-matrix:
 Charge =  0 Multiplicity = 1

                         Standard orientation:
 ---------------------------------------------------------------------
 Center     Atomic      Atomic             Coordinates (Angstroms)
 Number     Number       Type             X           Y           Z
 ---------------------------------------------------------------------
      1          6           0       -1.182656    0.010680    0.004945
      2          6           0        0.265311   -0.035897    0.003754
      3          7           0        1.439082    0.020601   -0.005907
      4          1           0       -1.467177   -0.241396    0.970758
      5          1           0       -1.526878   -0.767520   -0.691326
      6          1           0       -1.575452    1.016011   -0.290278
 ---------------------------------------------------------------------

 SCF Done:  E(RB2PLYPD3) =  -132.529233846     A.U. after   12 cycles
 E2(B2PLYPD3) =    -0.1822916273D+00 E(B2PLYPD3) =    -0.13271152547345D+03

 The electronic state is 1-A.
 Alpha  occ. eigenvalues --  -14.84661 -10.67013 -10.66716  -1.03282  -0.89731
 Alpha  occ. eigenvalues --   -0.59412  -0.55009  -0.53869  -0.44764  -0.38521
 Alpha  occ. eigenvalues --   -0.38423
 Alpha virt. eigenvalues --    0.03642   0.07195   0.08178   0.10082   0.11186
 Alpha virt. eigenvalues --    0.11283   0.15356   0.15385   0.16600   0.20194
 Alpha virt. eigenvalues --    0.20230   0.25547   0.32517   0.34221   0.34744

 Mulliken charges:
               1
     1  C   -0.091075
     2  C    0.001206
     3  N   -0.217031
     4  H    0.104599
     5  H    0.099538
     6  H    0.102763
 Sum of Mulliken charges =   0.00000

 Dipole moment (field-independent basis, Debye):
    X=             -4.1417    Y=             -0.0430    Z=              0.0264  Tot=              4.1420
 Quadrupole moment (field-independent basis, Debye-Ang):
   XX=            -21.1915   YY=            -17.6711   ZZ=            -17.8263
   XY=             -0.1149   XZ=              0.0473   YZ=             -0.0215

 Normal termination of Gaussian 09 at Wed Aug 26 14:04:17 2020.
