 Gaussian 09, Revision D.01,
 Gaussian 09:  ES64L-G09RevD.01 24-Apr-2013

 --------------------
 #p B2PLYPD3/Def2QZVP
 --------------------

 ------------
 cyanomethane
 ------------
 Symbolic Z-matrix:
 Charge =  0 Multiplicity = 1

                         Standard orientation:
 ---------------------------------------------------------------------
 Center     Atomic      Atomic             Coordinates (Angstroms)
 Number     Number       Type             X           Y           Z
 ---------------------------------------------------------------------
      1          6           0        1.179840    0.003860    0.017633
      2          6           0       -0.292424   -0.089371   -0.016115
      3          7           0       -1.437865    0.048810    0.010980
      4          1           0        1.598876    1.033942   -0.119755
      5          1           0        1.512514   -0.507738   -0.804339
      6          1           0        1.629167   -0.354807    0.838134
 ---------------------------------------------------------------------

 SCF Done:  E(RB2PLYPD3) =  -132.522278060     A.U. after   12 cycles
 E2(B2PLYPD3) =    -0.1803587522D+00 E(B2PLYPD3) =    -0.13270263681233D+03

 The electronic state is 1-A.
 Alpha  occ. eigenvalues --  -14.84457 -10.66504 -10.65899  -1.04296  -0.89844
 Alpha  occ. eigenvalues --   -0.60998  -0.55409  -0.52641  -0.45021  -0.39528
 Alpha  occ. eigenvalues --   -0.39139
 Alpha virt. eigenvalues --    0.03443   0.07665   0.08904   0.09997   0.11112
 Alpha virt. eigenvalues --    0.11591   0.15567   0.15893   0.17700   0.19933
 Alpha virt. eigenvalues --    0.20250   0.25638   0.33086   0.34068   0.35997

 Mulliken charges:
               1
     1  C   -0.061302
     2  C    0.007393
     3  N   -0.204138
     4  H    0.081819
     5  H    0.086955
     6  H    0.089275
 Sum of Mulliken charges =   0.00000

 Dipole moment (field-independent basis, Debye):
    X=              4.1189    Y=             -0.0893    Z=             -0.0388  Tot=              4.1200
 Quadrupole moment (field-independent basis, Debye-Ang):
   XX=            -20.5434   YY=            -17.8492   ZZ=            -17.7881
   XY=              0.2742   XZ=              0.0767   YZ=             -0.0137

 Normal termination of Gaussian 09 at Wed Aug 26 22:31:10 2020.
