 Gaussian 09, Revision D.01,
 Gaussian 09:  ES64L-G09RevD.01 24-Apr-2013

 --------------------
 #p B2PLYPD3/Def2QZVP
 --------------------

 ------------
 cyanomethane
 ------------
 Symbolic Z-matrix:
 Charge =  0 Multiplicity = 1

                         Standard orientation:
 ---------------------------------------------------------------------
 Center     Atomic      Atomic             Coordinates (Angstroms)
 Number     Number       Type             X           Y           Z
 ---------------------------------------------------------------------
      1          6           0       -1.172274    0.013100    0.000644
      2          6           0        0.271699   -0.010655    0.015119
      3          7           0        1.430836    0.004821   -0.010182
      4          1           0       -1.506409   -0.358618    0.960663
      5          1           0       -1.554594   -0.700336   -0.783283
      6          1           0       -1.551400    1.010535   -0.200677
 ---------------------------------------------------------------------

 SCF Done:  E(RB2PLYPD3) =  -132.533690106     A.U. after   12 cycles
 E2(B2PLYPD3) =    -0.1810203213D+00 E(B2PLYPD3) =    -0.13271471042709D+03

 The electronic state is 1-A.
 Alpha  occ. eigenvalues --  -14.84263 -10.67286 -10.66290  -1.03919  -0.89346
 Alpha  occ. eigenvalues --   -0.59600  -0.54645  -0.53254  -0.44770  -0.38926
 Alpha  occ. eigenvalues --   -0.38711
 Alpha virt. eigenvalues --    0.03695   0.07452   0.07973   0.10125   0.11365
 Alpha virt. eigenvalues --    0.11608   0.15441   0.15802   0.16598   0.20095
 Alpha virt. eigenvalues --    0.20165   0.25583   0.32693   0.33960   0.34881

 Mulliken charges:
               1
     1  C   -0.090380
     2  C   -0.000075
     3  N   -0.209128
     4  H    0.100277
     5  H    0.096143
     6  H    0.103163
 Sum of Mulliken charges =   0.00000

 Dipole moment (field-independent basis, Debye):
    X=             -4.1206    Y=             -0.0170    Z=              0.0224  Tot=              4.1207
 Quadrupole moment (field-independent basis, Debye-Ang):
   XX=            -21.1221   YY=            -17.6781   ZZ=            -17.7974
   XY=             -0.0078   XZ=              0.0771   YZ=             -0.0450

 Normal termination of Gaussian 09 at Thu Aug 27 00:10:20 2020.
