 Gaussian 09, Revision D.01,
 Gaussian 09:  ES64L-G09RevD.01 24-Apr-2013

 --------------------
 #p B2PLYPD3/Def2QZVP
 --------------------

 ------------
 cyanomethane
 ------------
 Symbolic Z-matrix:
 Charge =  0 Multiplicity = 1

                         Standard orientation:
 ---------------------------------------------------------------------
 Center     Atomic      Atomic             Coordinates (Angstroms)
 Number     Number       Type             X           Y           Z
 ---------------------------------------------------------------------
      1          6           0        1.179175   -0.007154   -0.028408
      2          6           0       -0.284071   -0.032505   -0.043851
      3          7           0       -1.451052    0.021610    0.028457
      4          1           0        1.549225   -0.502834   -0.835285
      5          1           0        1.594626   -0.522112    0.993502
      6          1           0        1.642892    1.111630    0.076135
 ---------------------------------------------------------------------

 SCF Done:  E(RB2PLYPD3) =  -132.511255447     A.U. after   12 cycles
 E2(B2PLYPD3) =    -0.1830562581D+00 E(B2PLYPD3) =    -0.13269431170546D+03

 The electronic state is 1-A.
 Alpha  occ. eigenvalues --  -14.84893 -10.68915 -10.67001  -1.03618  -0.88156
 Alpha  occ. eigenvalues --   -0.59837  -0.54491  -0.50066  -0.45038  -0.38997
 Alpha  occ. eigenvalues --   -0.38238
 Alpha virt. eigenvalues --    0.02893   0.05542   0.08091   0.10075   0.10825
 Alpha virt. eigenvalues --    0.11905   0.15248   0.16140   0.16809   0.19921
 Alpha virt. eigenvalues --    0.20293   0.25270   0.31363   0.31721   0.34341

 Mulliken charges:
               1
     1  C   -0.098105
     2  C    0.007907
     3  N   -0.209256
     4  H    0.112620
     5  H    0.091170
     6  H    0.095663
 Sum of Mulliken charges =   0.00000

 Dipole moment (field-independent basis, Debye):
    X=              4.1135    Y=             -0.0377    Z=             -0.0338  Tot=              4.1138
 Quadrupole moment (field-independent basis, Debye-Ang):
   XX=            -21.0178   YY=            -17.9669   ZZ=            -17.8982
   XY=              0.1601   XZ=              0.2174   YZ=              0.1602

 Normal termination of Gaussian 09 at Wed Aug 26 23:07:03 2020.
