 Gaussian 09, Revision D.01,
 Gaussian 09:  ES64L-G09RevD.01 24-Apr-2013

 --------------------
 #p B2PLYPD3/Def2QZVP
 --------------------

 ------------
 cyanomethane
 ------------
 Symbolic Z-matrix:
 Charge =  0 Multiplicity = 1

                         Standard orientation:
 ---------------------------------------------------------------------
 Center     Atomic      Atomic             Coordinates (Angstroms)
 Number     Number       Type             X           Y           Z
 ---------------------------------------------------------------------
      1          6           0       -1.188223    0.010002   -0.005070
      2          6           0        0.271022   -0.008285    0.085180
      3          7           0        1.447002    0.007342   -0.041484
      4          1           0       -1.568978   -0.121244    0.930909
      5          1           0       -1.481684   -0.920418   -0.641057
      6          1           0       -1.575147    0.979965   -0.480122
 ---------------------------------------------------------------------

 SCF Done:  E(RB2PLYPD3) =  -132.520760252     A.U. after   12 cycles
 E2(B2PLYPD3) =    -0.1834855534D+00 E(B2PLYPD3) =    -0.13270424580531D+03

 The electronic state is 1-A.
 Alpha  occ. eigenvalues --  -14.85014 -10.67855 -10.67085  -1.03018  -0.88961
 Alpha  occ. eigenvalues --   -0.59485  -0.54438  -0.52637  -0.44871  -0.38477
 Alpha  occ. eigenvalues --   -0.38196
 Alpha virt. eigenvalues --    0.03105   0.06487   0.08114   0.10074   0.10865
 Alpha virt. eigenvalues --    0.11358   0.14998   0.15563   0.16708   0.20070
 Alpha virt. eigenvalues --    0.20263   0.25599   0.32234   0.33138   0.34194

 Mulliken charges:
               1
     1  C   -0.099505
     2  C    0.007250
     3  N   -0.217946
     4  H    0.104730
     5  H    0.100570
     6  H    0.104902
 Sum of Mulliken charges =   0.00000

 Dipole moment (field-independent basis, Debye):
    X=             -4.1289    Y=             -0.0224    Z=              0.0776  Tot=              4.1297
 Quadrupole moment (field-independent basis, Debye-Ang):
   XX=            -21.1877   YY=            -17.6965   ZZ=            -17.9615
   XY=             -0.0710   XZ=              0.0918   YZ=             -0.0401

 Normal termination of Gaussian 09 at Wed Aug 26 16:31:09 2020.
