 Gaussian 09, Revision D.01,
 Gaussian 09:  ES64L-G09RevD.01 24-Apr-2013

 --------------------
 #p B2PLYPD3/Def2QZVP
 --------------------

 ------------
 cyanomethane
 ------------
 Symbolic Z-matrix:
 Charge =  0 Multiplicity = 1

                         Standard orientation:
 ---------------------------------------------------------------------
 Center     Atomic      Atomic             Coordinates (Angstroms)
 Number     Number       Type             X           Y           Z
 ---------------------------------------------------------------------
      1          6           0       -1.176524   -0.001524    0.001340
      2          6           0        0.273114   -0.004053    0.012877
      3          7           0        1.431269    0.005593   -0.010604
      4          1           0       -1.468639   -0.385211    0.930407
      5          1           0       -1.545779   -0.646831   -0.792163
      6          1           0       -1.584004    1.026351   -0.149318
 ---------------------------------------------------------------------

 SCF Done:  E(RB2PLYPD3) =  -132.533228782     A.U. after   12 cycles
 E2(B2PLYPD3) =    -0.1807309069D+00 E(B2PLYPD3) =    -0.13271395968935D+03

 The electronic state is 1-A.
 Alpha  occ. eigenvalues --  -14.84223 -10.66876 -10.66260  -1.03947  -0.89631
 Alpha  occ. eigenvalues --   -0.59583  -0.54924  -0.53665  -0.44744  -0.38932
 Alpha  occ. eigenvalues --   -0.38877
 Alpha virt. eigenvalues --    0.03755   0.07543   0.08383   0.10163   0.11356
 Alpha virt. eigenvalues --    0.11496   0.15433   0.15767   0.16630   0.20111
 Alpha virt. eigenvalues --    0.20152   0.25472   0.32717   0.34458   0.34882

 Mulliken charges:
               1
     1  C   -0.086961
     2  C   -0.001583
     3  N   -0.209034
     4  H    0.101872
     5  H    0.098062
     6  H    0.097643
 Sum of Mulliken charges =   0.00000

 Dipole moment (field-independent basis, Debye):
    X=             -4.1263    Y=             -0.0253    Z=              0.0242  Tot=              4.1264
 Quadrupole moment (field-independent basis, Debye-Ang):
   XX=            -21.0825   YY=            -17.6891   ZZ=            -17.7493
   XY=             -0.0477   XZ=              0.1032   YZ=             -0.0205

 Normal termination of Gaussian 09 at Wed Aug 26 10:09:08 2020.
