 Gaussian 09, Revision D.01,
 Gaussian 09:  ES64L-G09RevD.01 24-Apr-2013

 --------------------
 #p B2PLYPD3/Def2QZVP
 --------------------

 ------------
 cyanomethane
 ------------
 Symbolic Z-matrix:
 Charge =  0 Multiplicity = 1

                         Standard orientation:
 ---------------------------------------------------------------------
 Center     Atomic      Atomic             Coordinates (Angstroms)
 Number     Number       Type             X           Y           Z
 ---------------------------------------------------------------------
      1          6           0        1.146172    0.002853    0.030697
      2          6           0       -0.248247    0.024388   -0.063626
      3          7           0       -1.435599   -0.013147    0.026971
      4          1           0        1.552557    1.102800   -0.035862
      5          1           0        1.580859   -0.628859   -0.900091
      6          1           0        1.528225   -0.545358    0.944728
 ---------------------------------------------------------------------

 SCF Done:  E(RB2PLYPD3) =  -132.512608503     A.U. after   12 cycles
 E2(B2PLYPD3) =    -0.1851828780D+00 E(B2PLYPD3) =    -0.13269779138149D+03

 The electronic state is 1-A.
 Alpha  occ. eigenvalues --  -14.85208 -10.68985 -10.67094  -1.02897  -0.88916
 Alpha  occ. eigenvalues --   -0.59866  -0.53437  -0.51780  -0.45037  -0.37866
 Alpha  occ. eigenvalues --   -0.37501
 Alpha virt. eigenvalues --    0.03185   0.05542   0.06006   0.09830   0.11366
 Alpha virt. eigenvalues --    0.11767   0.15319   0.15687   0.16636   0.20214
 Alpha virt. eigenvalues --    0.20301   0.26441   0.31332   0.32634   0.34226

 Mulliken charges:
               1
     1  C   -0.108933
     2  C    0.013898
     3  N   -0.220135
     4  H    0.107094
     5  H    0.096301
     6  H    0.111775
 Sum of Mulliken charges =   0.00000

 Dipole moment (field-independent basis, Debye):
    X=              4.1055    Y=             -0.0096    Z=             -0.0126  Tot=              4.1055
 Quadrupole moment (field-independent basis, Debye-Ang):
   XX=            -21.3129   YY=            -17.7342   ZZ=            -18.0279
   XY=             -0.1317   XZ=              0.1160   YZ=             -0.0734

 Normal termination of Gaussian 09 at Wed Aug 26 22:03:43 2020.
