 Gaussian 09, Revision D.01,
 Gaussian 09:  ES64L-G09RevD.01 24-Apr-2013

 --------------------
 #p B2PLYPD3/Def2QZVP
 --------------------

 ------------
 cyanomethane
 ------------
 Symbolic Z-matrix:
 Charge =  0 Multiplicity = 1

                         Standard orientation:
 ---------------------------------------------------------------------
 Center     Atomic      Atomic             Coordinates (Angstroms)
 Number     Number       Type             X           Y           Z
 ---------------------------------------------------------------------
      1          6           0       -1.163994    0.015289    0.012090
      2          6           0        0.292597   -0.046888   -0.059041
      3          7           0        1.439797    0.031312    0.030325
      4          1           0       -1.618920   -0.038128    1.020242
      5          1           0       -1.518048   -0.889367   -0.485808
      6          1           0       -1.713233    0.897901   -0.465004
 ---------------------------------------------------------------------

 SCF Done:  E(RB2PLYPD3) =  -132.526471600     A.U. after   12 cycles
 E2(B2PLYPD3) =    -0.1812344959D+00 E(B2PLYPD3) =    -0.13270770609537D+03

 The electronic state is 1-A.
 Alpha  occ. eigenvalues --  -14.84536 -10.67765 -10.66606  -1.04424  -0.88468
 Alpha  occ. eigenvalues --   -0.60787  -0.52955  -0.51882  -0.45140  -0.39225
 Alpha  occ. eigenvalues --   -0.39095
 Alpha virt. eigenvalues --    0.03391   0.06685   0.07822   0.09866   0.11482
 Alpha virt. eigenvalues --    0.11767   0.15461   0.15961   0.18106   0.19859
 Alpha virt. eigenvalues --    0.20511   0.25818   0.32621   0.34004   0.34485

 Mulliken charges:
               1
     1  C   -0.075071
     2  C    0.009808
     3  N   -0.201839
     4  H    0.089507
     5  H    0.087768
     6  H    0.089827
 Sum of Mulliken charges =   0.00000

 Dipole moment (field-independent basis, Debye):
    X=             -4.1066    Y=             -0.0806    Z=             -0.0288  Tot=              4.1075
 Quadrupole moment (field-independent basis, Debye-Ang):
   XX=            -20.5796   YY=            -17.8732   ZZ=            -18.0174
   XY=             -0.2328   XZ=             -0.2203   YZ=              0.0016

 Normal termination of Gaussian 09 at Wed Aug 26 22:17:20 2020.
