 Gaussian 09, Revision D.01,
 Gaussian 09:  ES64L-G09RevD.01 24-Apr-2013

 --------------------
 #p B2PLYPD3/Def2QZVP
 --------------------

 ------------
 cyanomethane
 ------------
 Symbolic Z-matrix:
 Charge =  0 Multiplicity = 1

                         Standard orientation:
 ---------------------------------------------------------------------
 Center     Atomic      Atomic             Coordinates (Angstroms)
 Number     Number       Type             X           Y           Z
 ---------------------------------------------------------------------
      1          6           0        1.173841    0.001444   -0.006069
      2          6           0       -0.272332   -0.029913    0.021157
      3          7           0       -1.426497    0.014501   -0.007111
      4          1           0        1.571718    0.014013    0.976642
      5          1           0        1.491795    0.943389   -0.498313
      6          1           0        1.512915   -0.888097   -0.519075
 ---------------------------------------------------------------------

 SCF Done:  E(RB2PLYPD3) =  -132.534129345     A.U. after   11 cycles
 E2(B2PLYPD3) =    -0.1804678574D+00 E(B2PLYPD3) =    -0.13271459720245D+03

 The electronic state is 1-A.
 Alpha  occ. eigenvalues --  -14.84105 -10.66850 -10.66118  -1.04061  -0.89624
 Alpha  occ. eigenvalues --   -0.59653  -0.54800  -0.53771  -0.44713  -0.39002
 Alpha  occ. eigenvalues --   -0.38883
 Alpha virt. eigenvalues --    0.03736   0.07832   0.08212   0.10171   0.11370
 Alpha virt. eigenvalues --    0.11584   0.15346   0.16083   0.16310   0.20068
 Alpha virt. eigenvalues --    0.20145   0.25595   0.32931   0.34260   0.34843

 Mulliken charges:
               1
     1  C   -0.087950
     2  C   -0.001437
     3  N   -0.208001
     4  H    0.095919
     5  H    0.100255
     6  H    0.101213
 Sum of Mulliken charges =   0.00000

 Dipole moment (field-independent basis, Debye):
    X=              4.1149    Y=             -0.0161    Z=              0.0345  Tot=              4.1151
 Quadrupole moment (field-independent basis, Debye-Ang):
   XX=            -21.1174   YY=            -17.5548   ZZ=            -17.8351
   XY=              0.0721   XZ=              0.0798   YZ=              0.0292

 Normal termination of Gaussian 09 at Wed Aug 26 13:55:21 2020.
