 Gaussian 09, Revision D.01,
 Gaussian 09:  ES64L-G09RevD.01 24-Apr-2013

 --------------------
 #p B2PLYPD3/Def2QZVP
 --------------------

 ------------
 cyanomethane
 ------------
 Symbolic Z-matrix:
 Charge =  0 Multiplicity = 1

                         Standard orientation:
 ---------------------------------------------------------------------
 Center     Atomic      Atomic             Coordinates (Angstroms)
 Number     Number       Type             X           Y           Z
 ---------------------------------------------------------------------
      1          6           0        1.174335   -0.002651    0.002620
      2          6           0       -0.275462   -0.003556   -0.019941
      3          7           0       -1.440388    0.001919    0.006163
      4          1           0        1.588382    0.895188   -0.489075
      5          1           0        1.593627   -0.884050   -0.479952
      6          1           0        1.507473    0.012668    1.029816
 ---------------------------------------------------------------------

 SCF Done:  E(RB2PLYPD3) =  -132.534197983     A.U. after   11 cycles
 E2(B2PLYPD3) =    -0.1814458482D+00 E(B2PLYPD3) =    -0.13271564383154D+03

 The electronic state is 1-A.
 Alpha  occ. eigenvalues --  -14.84546 -10.67125 -10.66616  -1.03745  -0.89311
 Alpha  occ. eigenvalues --   -0.60199  -0.53993  -0.53559  -0.44894  -0.38841
 Alpha  occ. eigenvalues --   -0.38765
 Alpha virt. eigenvalues --    0.03739   0.07482   0.07691   0.10154   0.11339
 Alpha virt. eigenvalues --    0.11463   0.15444   0.16226   0.16591   0.20120
 Alpha virt. eigenvalues --    0.20154   0.25491   0.32606   0.34504   0.34775

 Mulliken charges:
               1
     1  C   -0.077936
     2  C    0.001706
     3  N   -0.210781
     4  H    0.094172
     5  H    0.095828
     6  H    0.097011
 Sum of Mulliken charges =   0.00000

 Dipole moment (field-independent basis, Debye):
    X=              4.1483    Y=             -0.0013    Z=              0.0089  Tot=              4.1483
 Quadrupole moment (field-independent basis, Debye-Ang):
   XX=            -20.9121   YY=            -17.7911   ZZ=            -17.8390
   XY=              0.0107   XZ=              0.0030   YZ=              0.0134

 Normal termination of Gaussian 09 at Wed Aug 26 10:08:32 2020.
