 Gaussian 09, Revision D.01,
 Gaussian 09:  ES64L-G09RevD.01 24-Apr-2013

 --------------------
 #p B2PLYPD3/Def2QZVP
 --------------------

 ------------
 cyanomethane
 ------------
 Symbolic Z-matrix:
 Charge =  0 Multiplicity = 1

                         Standard orientation:
 ---------------------------------------------------------------------
 Center     Atomic      Atomic             Coordinates (Angstroms)
 Number     Number       Type             X           Y           Z
 ---------------------------------------------------------------------
      1          6           0       -1.176108   -0.004791   -0.003175
      2          6           0        0.274793    0.036158    0.013702
      3          7           0        1.422660   -0.001277   -0.008148
      4          1           0       -1.450760   -0.332410    0.991904
      5          1           0       -1.379736   -0.879591   -0.709753
      6          1           0       -1.720233    1.032741   -0.288272
 ---------------------------------------------------------------------

 SCF Done:  E(RB2PLYPD3) =  -132.521877507     A.U. after   12 cycles
 E2(B2PLYPD3) =    -0.1808849297D+00 E(B2PLYPD3) =    -0.13270276243635D+03

 The electronic state is 1-A.
 Alpha  occ. eigenvalues --  -14.83828 -10.68664 -10.65947  -1.04283  -0.88595
 Alpha  occ. eigenvalues --   -0.58202  -0.53426  -0.52933  -0.44587  -0.38991
 Alpha  occ. eigenvalues --   -0.38769
 Alpha virt. eigenvalues --    0.03305   0.06793   0.08152   0.10211   0.11625
 Alpha virt. eigenvalues --    0.11929   0.14884   0.15392   0.16872   0.20028
 Alpha virt. eigenvalues --    0.20188   0.25433   0.31292   0.33277   0.34206

 Mulliken charges:
               1
     1  C   -0.118927
     2  C    0.000710
     3  N   -0.204728
     4  H    0.108252
     5  H    0.108910
     6  H    0.105784
 Sum of Mulliken charges =   0.00000

 Dipole moment (field-independent basis, Debye):
    X=             -4.0775    Y=             -0.0454    Z=              0.0513  Tot=              4.0781
 Quadrupole moment (field-independent basis, Debye-Ang):
   XX=            -21.4397   YY=            -17.4786   ZZ=            -17.9124
   XY=             -0.1908   XZ=             -0.0307   YZ=             -0.0098

 Normal termination of Gaussian 09 at Wed Aug 26 20:11:02 2020.
