 Gaussian 09, Revision D.01,
 Gaussian 09:  ES64L-G09RevD.01 24-Apr-2013

 --------------------
 #p B2PLYPD3/Def2QZVP
 --------------------

 ------------
 cyanomethane
 ------------
 Symbolic Z-matrix:
 Charge =  0 Multiplicity = 1

                         Standard orientation:
 ---------------------------------------------------------------------
 Center     Atomic      Atomic             Coordinates (Angstroms)
 Number     Number       Type             X           Y           Z
 ---------------------------------------------------------------------
      1          6           0       -1.173875    0.001714   -0.006257
      2          6           0        0.270702   -0.016568    0.009866
      3          7           0        1.430610    0.009336   -0.004013
      4          1           0       -1.537511   -0.078766    0.983029
      5          1           0       -1.518164   -0.829812   -0.561392
      6          1           0       -1.539561    0.932349   -0.415202
 ---------------------------------------------------------------------

 SCF Done:  E(RB2PLYPD3) =  -132.534059459     A.U. after   11 cycles
 E2(B2PLYPD3) =    -0.1806440736D+00 E(B2PLYPD3) =    -0.13271470353273D+03

 The electronic state is 1-A.
 Alpha  occ. eigenvalues --  -14.84276 -10.66310 -10.66242  -1.03893  -0.90068
 Alpha  occ. eigenvalues --   -0.60078  -0.55040  -0.54295  -0.44771  -0.38937
 Alpha  occ. eigenvalues --   -0.38848
 Alpha virt. eigenvalues --    0.03866   0.07921   0.08264   0.10160   0.11316
 Alpha virt. eigenvalues --    0.11462   0.15506   0.16009   0.16508   0.20114
 Alpha virt. eigenvalues --    0.20167   0.25583   0.32994   0.34781   0.35121

 Mulliken charges:
               1
     1  C   -0.075973
     2  C   -0.001253
     3  N   -0.210400
     4  H    0.093564
     5  H    0.097459
     6  H    0.096602
 Sum of Mulliken charges =   0.00000

 Dipole moment (field-independent basis, Debye):
    X=             -4.1387    Y=             -0.0168    Z=              0.0232  Tot=              4.1388
 Quadrupole moment (field-independent basis, Debye-Ang):
   XX=            -20.9826   YY=            -17.6326   ZZ=            -17.7926
   XY=             -0.0559   XZ=             -0.0311   YZ=              0.0187

 Normal termination of Gaussian 09 at Wed Aug 26 23:54:27 2020.
