 Gaussian 09, Revision D.01,
 Gaussian 09:  ES64L-G09RevD.01 24-Apr-2013

 --------------------
 #p B2PLYPD3/Def2QZVP
 --------------------

 ------------
 cyanomethane
 ------------
 Symbolic Z-matrix:
 Charge =  0 Multiplicity = 1

                         Standard orientation:
 ---------------------------------------------------------------------
 Center     Atomic      Atomic             Coordinates (Angstroms)
 Number     Number       Type             X           Y           Z
 ---------------------------------------------------------------------
      1          6           0       -1.169834    0.007466    0.009853
      2          6           0        0.283600   -0.011661   -0.015621
      3          7           0        1.428157    0.003324    0.007215
      4          1           0       -1.533082    0.987204   -0.255496
      5          1           0       -1.568038   -0.274039    0.962778
      6          1           0       -1.578578   -0.711258   -0.723174
 ---------------------------------------------------------------------

 SCF Done:  E(RB2PLYPD3) =  -132.535763466     A.U. after   11 cycles
 E2(B2PLYPD3) =    -0.1796009038D+00 E(B2PLYPD3) =    -0.13271536436941D+03

 The electronic state is 1-A.
 Alpha  occ. eigenvalues --  -14.83959 -10.66868 -10.65993  -1.04543  -0.89310
 Alpha  occ. eigenvalues --   -0.60117  -0.54314  -0.53337  -0.44809  -0.39392
 Alpha  occ. eigenvalues --   -0.39238
 Alpha virt. eigenvalues --    0.03801   0.07962   0.08159   0.10182   0.11528
 Alpha virt. eigenvalues --    0.11668   0.15505   0.16314   0.16794   0.20034
 Alpha virt. eigenvalues --    0.20058   0.25469   0.32890   0.34490   0.35106

 Mulliken charges:
               1
     1  C   -0.077458
     2  C   -0.001870
     3  N   -0.201021
     4  H    0.095601
     5  H    0.094877
     6  H    0.089872
 Sum of Mulliken charges =   0.00000

 Dipole moment (field-independent basis, Debye):
    X=             -4.1160    Y=             -0.0075    Z=             -0.0095  Tot=              4.1160
 Quadrupole moment (field-independent basis, Debye-Ang):
   XX=            -20.8759   YY=            -17.7145   ZZ=            -17.7701
   XY=              0.0238   XZ=             -0.0435   YZ=             -0.0383

 Normal termination of Gaussian 09 at Wed Aug 26 12:31:58 2020.
