 Gaussian 09, Revision D.01,
 Gaussian 09:  ES64L-G09RevD.01 24-Apr-2013

 --------------------
 #p B2PLYPD3/Def2QZVP
 --------------------

 ------------
 cyanomethane
 ------------
 Symbolic Z-matrix:
 Charge =  0 Multiplicity = 1

                         Standard orientation:
 ---------------------------------------------------------------------
 Center     Atomic      Atomic             Coordinates (Angstroms)
 Number     Number       Type             X           Y           Z
 ---------------------------------------------------------------------
      1          6           0       -1.183006    0.004054    0.012348
      2          6           0        0.281459    0.008275    0.007928
      3          7           0        1.433522   -0.005772   -0.007814
      4          1           0       -1.512117   -0.170429    0.995321
      5          1           0       -1.572158   -0.834301   -0.664793
      6          1           0       -1.541096    0.971156   -0.397481
 ---------------------------------------------------------------------

 SCF Done:  E(RB2PLYPD3) =  -132.532396294     A.U. after   12 cycles
 E2(B2PLYPD3) =    -0.1804410182D+00 E(B2PLYPD3) =    -0.13271283731247D+03

 The electronic state is 1-A.
 Alpha  occ. eigenvalues --  -14.84084 -10.67586 -10.66161  -1.04158  -0.88920
 Alpha  occ. eigenvalues --   -0.59127  -0.54828  -0.52721  -0.44714  -0.39212
 Alpha  occ. eigenvalues --   -0.38942
 Alpha virt. eigenvalues --    0.03630   0.07485   0.08341   0.10192   0.11299
 Alpha virt. eigenvalues --    0.11638   0.15286   0.16131   0.16272   0.20040
 Alpha virt. eigenvalues --    0.20116   0.25186   0.32400   0.33703   0.34996

 Mulliken charges:
               1
     1  C   -0.095115
     2  C   -0.002463
     3  N   -0.204894
     4  H    0.105276
     5  H    0.095763
     6  H    0.101434
 Sum of Mulliken charges =   0.00000

 Dipole moment (field-independent basis, Debye):
    X=             -4.1124    Y=              0.0063    Z=              0.0188  Tot=              4.1125
 Quadrupole moment (field-independent basis, Debye-Ang):
   XX=            -21.1558   YY=            -17.7301   ZZ=            -17.7252
   XY=              0.0594   XZ=              0.0712   YZ=             -0.0594

 Normal termination of Gaussian 09 at Thu Aug 27 01:00:26 2020.
