 Gaussian 09, Revision D.01,
 Gaussian 09:  ES64L-G09RevD.01 24-Apr-2013

 --------------------
 #p B2PLYPD3/Def2QZVP
 --------------------

 ------------
 cyanomethane
 ------------
 Symbolic Z-matrix:
 Charge =  0 Multiplicity = 1

                         Standard orientation:
 ---------------------------------------------------------------------
 Center     Atomic      Atomic             Coordinates (Angstroms)
 Number     Number       Type             X           Y           Z
 ---------------------------------------------------------------------
      1          6           0       -1.174957   -0.006463   -0.008945
      2          6           0        0.283861    0.012726    0.012520
      3          7           0        1.437093   -0.003587   -0.003988
      4          1           0       -1.578321   -0.415060    0.946034
      5          1           0       -1.533738   -0.619720   -0.823242
      6          1           0       -1.601015    1.022310   -0.116327
 ---------------------------------------------------------------------

 SCF Done:  E(RB2PLYPD3) =  -132.534432469     A.U. after   11 cycles
 E2(B2PLYPD3) =    -0.1806064805D+00 E(B2PLYPD3) =    -0.13271503894936D+03

 The electronic state is 1-A.
 Alpha  occ. eigenvalues --  -14.84248 -10.67578 -10.66327  -1.04204  -0.88795
 Alpha  occ. eigenvalues --   -0.59836  -0.53883  -0.52860  -0.44860  -0.39167
 Alpha  occ. eigenvalues --   -0.39033
 Alpha virt. eigenvalues --    0.03676   0.07531   0.07810   0.10174   0.11466
 Alpha virt. eigenvalues --    0.11579   0.15388   0.16390   0.16588   0.20054
 Alpha virt. eigenvalues --    0.20085   0.25349   0.32532   0.34135   0.34793

 Mulliken charges:
               1
     1  C   -0.084070
     2  C    0.000216
     3  N   -0.204424
     4  H    0.094282
     5  H    0.099912
     6  H    0.094083
 Sum of Mulliken charges =   0.00000

 Dipole moment (field-independent basis, Debye):
    X=             -4.1253    Y=             -0.0009    Z=              0.0054  Tot=              4.1253
 Quadrupole moment (field-independent basis, Debye-Ang):
   XX=            -20.9349   YY=            -17.8052   ZZ=            -17.7996
   XY=             -0.0098   XZ=             -0.0089   YZ=              0.0371

 Normal termination of Gaussian 09 at Wed Aug 26 23:57:35 2020.
