 Gaussian 09, Revision D.01,
 Gaussian 09:  ES64L-G09RevD.01 24-Apr-2013

 --------------------
 #p B2PLYPD3/Def2QZVP
 --------------------

 ------------
 cyanomethane
 ------------
 Symbolic Z-matrix:
 Charge =  0 Multiplicity = 1

                         Standard orientation:
 ---------------------------------------------------------------------
 Center     Atomic      Atomic             Coordinates (Angstroms)
 Number     Number       Type             X           Y           Z
 ---------------------------------------------------------------------
      1          6           0        1.179359   -0.002264    0.001062
      2          6           0       -0.283171   -0.016982   -0.011007
      3          7           0       -1.426734    0.009110    0.006378
      4          1           0        1.546096   -0.082026    1.023088
      5          1           0        1.532021    0.948671   -0.419089
      6          1           0        1.531895   -0.814943   -0.588979
 ---------------------------------------------------------------------

 SCF Done:  E(RB2PLYPD3) =  -132.535990596     A.U. after   11 cycles
 E2(B2PLYPD3) =    -0.1794654480D+00 E(B2PLYPD3) =    -0.13271545604378D+03

 The electronic state is 1-A.
 Alpha  occ. eigenvalues --  -14.83829 -10.66965 -10.65875  -1.04488  -0.89266
 Alpha  occ. eigenvalues --   -0.59322  -0.54608  -0.53692  -0.44681  -0.39374
 Alpha  occ. eigenvalues --   -0.39260
 Alpha virt. eigenvalues --    0.03786   0.08060   0.08477   0.10211   0.11442
 Alpha virt. eigenvalues --    0.11629   0.15394   0.16152   0.16439   0.20016
 Alpha virt. eigenvalues --    0.20081   0.25265   0.32875   0.34454   0.34976

 Mulliken charges:
               1
     1  C   -0.087785
     2  C   -0.005081
     3  N   -0.201153
     4  H    0.097686
     5  H    0.096859
     6  H    0.099474
 Sum of Mulliken charges =   0.00000

 Dipole moment (field-independent basis, Debye):
    X=              4.1075    Y=             -0.0115    Z=             -0.0099  Tot=              4.1075
 Quadrupole moment (field-independent basis, Debye-Ang):
   XX=            -21.0659   YY=            -17.6813   ZZ=            -17.6858
   XY=              0.0572   XZ=              0.0479   YZ=              0.0274

 Normal termination of Gaussian 09 at Wed Aug 26 23:58:42 2020.
