 Gaussian 09, Revision D.01,
 Gaussian 09:  ES64L-G09RevD.01 24-Apr-2013

 --------------------
 #p B2PLYPD3/Def2QZVP
 --------------------

 ------------
 cyanomethane
 ------------
 Symbolic Z-matrix:
 Charge =  0 Multiplicity = 1

                         Standard orientation:
 ---------------------------------------------------------------------
 Center     Atomic      Atomic             Coordinates (Angstroms)
 Number     Number       Type             X           Y           Z
 ---------------------------------------------------------------------
      1          6           0       -1.182550   -0.006980   -0.025437
      2          6           0        0.279051    0.054886    0.018257
      3          7           0        1.453318   -0.034108   -0.008587
      4          1           0       -1.506368    1.073014   -0.001127
      5          1           0       -1.597449   -0.531490    0.913844
      6          1           0       -1.648414   -0.590200   -0.809522
 ---------------------------------------------------------------------

 SCF Done:  E(RB2PLYPD3) =  -132.523659696     A.U. after   12 cycles
 E2(B2PLYPD3) =    -0.1833347358D+00 E(B2PLYPD3) =    -0.13270699443211D+03

 The electronic state is 1-A.
 Alpha  occ. eigenvalues --  -14.85043 -10.68215 -10.67184  -1.03292  -0.88447
 Alpha  occ. eigenvalues --   -0.60435  -0.53751  -0.51608  -0.45020  -0.38637
 Alpha  occ. eigenvalues --   -0.38337
 Alpha virt. eigenvalues --    0.03425   0.06460   0.07294   0.09818   0.11110
 Alpha virt. eigenvalues --    0.11634   0.15082   0.15887   0.17277   0.20013
 Alpha virt. eigenvalues --    0.20393   0.25478   0.32088   0.33165   0.34598

 Mulliken charges:
               1
     1  C   -0.087551
     2  C    0.009590
     3  N   -0.214217
     4  H    0.099704
     5  H    0.090064
     6  H    0.102411
 Sum of Mulliken charges =   0.00000

 Dipole moment (field-independent basis, Debye):
    X=             -4.1409    Y=              0.0082    Z=              0.0203  Tot=              4.1410
 Quadrupole moment (field-independent basis, Debye-Ang):
   XX=            -20.9586   YY=            -17.6946   ZZ=            -18.1714
   XY=              0.3762   XZ=              0.0353   YZ=              0.0642

 Normal termination of Gaussian 09 at Wed Aug 26 22:38:11 2020.
