 Gaussian 09, Revision D.01,
 Gaussian 09:  ES64L-G09RevD.01 24-Apr-2013

 --------------------
 #p B2PLYPD3/Def2QZVP
 --------------------

 ------------
 cyanomethane
 ------------
 Symbolic Z-matrix:
 Charge =  0 Multiplicity = 1

                         Standard orientation:
 ---------------------------------------------------------------------
 Center     Atomic      Atomic             Coordinates (Angstroms)
 Number     Number       Type             X           Y           Z
 ---------------------------------------------------------------------
      1          6           0        1.174722   -0.011769    0.012649
      2          6           0       -0.308934    0.016805    0.070487
      3          7           0       -1.435889   -0.001482   -0.038514
      4          1           0        1.696125    1.038222   -0.270540
      5          1           0        1.551472   -0.706345   -0.814383
      6          1           0        1.608900   -0.351718    0.855708
 ---------------------------------------------------------------------

 SCF Done:  E(RB2PLYPD3) =  -132.519048600     A.U. after   12 cycles
 E2(B2PLYPD3) =    -0.1793609976D+00 E(B2PLYPD3) =    -0.13269840959731D+03

 The electronic state is 1-A.
 Alpha  occ. eigenvalues --  -14.83925 -10.68054 -10.66066  -1.05205  -0.88062
 Alpha  occ. eigenvalues --   -0.60315  -0.53696  -0.50791  -0.44990  -0.40042
 Alpha  occ. eigenvalues --   -0.39516
 Alpha virt. eigenvalues --    0.03204   0.06784   0.08838   0.10201   0.11314
 Alpha virt. eigenvalues --    0.12038   0.15335   0.16688   0.17374   0.19778
 Alpha virt. eigenvalues --    0.20069   0.25144   0.31688   0.33438   0.34596

 Mulliken charges:
               1
     1  C   -0.083295
     2  C    0.003439
     3  N   -0.190542
     4  H    0.084459
     5  H    0.087707
     6  H    0.098232
 Sum of Mulliken charges =   0.00000

 Dipole moment (field-independent basis, Debye):
    X=              4.0803    Y=             -0.0506    Z=              0.0713  Tot=              4.0813
 Quadrupole moment (field-independent basis, Debye-Ang):
   XX=            -20.6452   YY=            -17.8450   ZZ=            -17.9025
   XY=             -0.0317   XZ=             -0.2185   YZ=             -0.0658

 Normal termination of Gaussian 09 at Wed Aug 26 22:33:55 2020.
