 Gaussian 09, Revision D.01,
 Gaussian 09:  ES64L-G09RevD.01 24-Apr-2013

 --------------------
 #p B2PLYPD3/Def2QZVP
 --------------------

 ------------
 cyanomethane
 ------------
 Symbolic Z-matrix:
 Charge =  0 Multiplicity = 1

                         Standard orientation:
 ---------------------------------------------------------------------
 Center     Atomic      Atomic             Coordinates (Angstroms)
 Number     Number       Type             X           Y           Z
 ---------------------------------------------------------------------
      1          6           0       -1.171971   -0.008392   -0.004725
      2          6           0        0.273061    0.018754   -0.003526
      3          7           0        1.430389   -0.010646    0.002003
      4          1           0       -1.516986    1.009342   -0.118316
      5          1           0       -1.544379   -0.383825    0.933266
      6          1           0       -1.557894   -0.613165   -0.779465
 ---------------------------------------------------------------------

 SCF Done:  E(RB2PLYPD3) =  -132.534643465     A.U. after   11 cycles
 E2(B2PLYPD3) =    -0.1805130130D+00 E(B2PLYPD3) =    -0.13271515647851D+03

 The electronic state is 1-A.
 Alpha  occ. eigenvalues --  -14.84239 -10.66443 -10.66255  -1.04011  -0.89873
 Alpha  occ. eigenvalues --   -0.60208  -0.54700  -0.54090  -0.44795  -0.39019
 Alpha  occ. eigenvalues --   -0.38894
 Alpha virt. eigenvalues --    0.03855   0.07929   0.08120   0.10140   0.11385
 Alpha virt. eigenvalues --    0.11505   0.15531   0.16015   0.16661   0.20100
 Alpha virt. eigenvalues --    0.20151   0.25588   0.32968   0.34597   0.35173

 Mulliken charges:
               1
     1  C   -0.076296
     2  C   -0.000693
     3  N   -0.208707
     4  H    0.094802
     5  H    0.094074
     6  H    0.096820
 Sum of Mulliken charges =   0.00000

 Dipole moment (field-independent basis, Debye):
    X=             -4.1337    Y=              0.0141    Z=              0.0036  Tot=              4.1337
 Quadrupole moment (field-independent basis, Debye-Ang):
   XX=            -20.9540   YY=            -17.6960   ZZ=            -17.7589
   XY=              0.0902   XZ=             -0.0221   YZ=              0.0231

 Normal termination of Gaussian 09 at Thu Aug 27 00:14:38 2020.
