 Gaussian 09, Revision D.01,
 Gaussian 09:  ES64L-G09RevD.01 24-Apr-2013

 --------------------
 #p B2PLYPD3/Def2QZVP
 --------------------

 ------------
 cyanomethane
 ------------
 Symbolic Z-matrix:
 Charge =  0 Multiplicity = 1

                         Standard orientation:
 ---------------------------------------------------------------------
 Center     Atomic      Atomic             Coordinates (Angstroms)
 Number     Number       Type             X           Y           Z
 ---------------------------------------------------------------------
      1          6           0       -1.173026   -0.000300   -0.023807
      2          6           0        0.278496    0.034697    0.008122
      3          7           0        1.413668   -0.013086    0.000268
      4          1           0       -1.535561   -0.142056    0.914147
      5          1           0       -1.434194   -0.852881   -0.491370
      6          1           0       -1.558740    0.880152   -0.330544
 ---------------------------------------------------------------------

 SCF Done:  E(RB2PLYPD3) =  -132.520979305     A.U. after   11 cycles
 E2(B2PLYPD3) =    -0.1781416317D+00 E(B2PLYPD3) =    -0.13269912093667D+03

 The electronic state is 1-A.
 Alpha  occ. eigenvalues --  -14.83513 -10.65498 -10.64514  -1.04817  -0.91332
 Alpha  occ. eigenvalues --   -0.60454  -0.57705  -0.53954  -0.44612  -0.39807
 Alpha  occ. eigenvalues --   -0.39339
 Alpha virt. eigenvalues --    0.04083   0.09043   0.09250   0.10304   0.11220
 Alpha virt. eigenvalues --    0.11872   0.15418   0.16177   0.17008   0.19915
 Alpha virt. eigenvalues --    0.20167   0.25516   0.33484   0.34956   0.36650

 Mulliken charges:
               1
     1  C   -0.059042
     2  C   -0.003799
     3  N   -0.200022
     4  H    0.077194
     5  H    0.093133
     6  H    0.092535
 Sum of Mulliken charges =   0.00000

 Dipole moment (field-independent basis, Debye):
    X=             -4.1250    Y=             -0.0067    Z=              0.0731  Tot=              4.1256
 Quadrupole moment (field-independent basis, Debye-Ang):
   XX=            -20.7855   YY=            -17.2732   ZZ=            -17.8727
   XY=              0.0466   XZ=             -0.2106   YZ=              0.0044

 Normal termination of Gaussian 09 at Wed Aug 26 23:50:02 2020.
