 Gaussian 09, Revision D.01,
 Gaussian 09:  ES64L-G09RevD.01 24-Apr-2013

 --------------------
 #p B2PLYPD3/Def2QZVP
 --------------------

 ------------
 cyanomethane
 ------------
 Symbolic Z-matrix:
 Charge =  0 Multiplicity = 1

                         Standard orientation:
 ---------------------------------------------------------------------
 Center     Atomic      Atomic             Coordinates (Angstroms)
 Number     Number       Type             X           Y           Z
 ---------------------------------------------------------------------
      1          6           0       -1.182879    0.000213   -0.009357
      2          6           0        0.273366   -0.000287    0.023458
      3          7           0        1.439160    0.000568   -0.008984
      4          1           0       -1.570410   -0.004716    1.007235
      5          1           0       -1.518194   -0.911438   -0.517464
      6          1           0       -1.528439    0.912620   -0.511492
 ---------------------------------------------------------------------

 SCF Done:  E(RB2PLYPD3) =  -132.534003024     A.U. after   11 cycles
 E2(B2PLYPD3) =    -0.1815351654D+00 E(B2PLYPD3) =    -0.13271553818902D+03

 The electronic state is 1-A.
 Alpha  occ. eigenvalues --  -14.84464 -10.67324 -10.66543  -1.03618  -0.89229
 Alpha  occ. eigenvalues --   -0.59429  -0.54363  -0.53705  -0.44768  -0.38769
 Alpha  occ. eigenvalues --   -0.38693
 Alpha virt. eigenvalues --    0.03704   0.07683   0.07748   0.10161   0.11282
 Alpha virt. eigenvalues --    0.11366   0.15273   0.15977   0.16302   0.20131
 Alpha virt. eigenvalues --    0.20160   0.25362   0.32559   0.34324   0.34607

 Mulliken charges:
               1
     1  C   -0.089749
     2  C   -0.000006
     3  N   -0.212120
     4  H    0.097397
     5  H    0.102325
     6  H    0.102153
 Sum of Mulliken charges =   0.00000

 Dipole moment (field-independent basis, Debye):
    X=             -4.1389    Y=             -0.0015    Z=              0.0257  Tot=              4.1390
 Quadrupole moment (field-independent basis, Debye-Ang):
   XX=            -21.1317   YY=            -17.6669   ZZ=            -17.8554
   XY=             -0.0093   XZ=             -0.0302   YZ=              0.0010

 Normal termination of Gaussian 09 at Thu Aug 27 00:08:03 2020.
