 Gaussian 09, Revision D.01,
 Gaussian 09:  ES64L-G09RevD.01 24-Apr-2013

 --------------------
 #p B2PLYPD3/Def2QZVP
 --------------------

 ------------
 cyanomethane
 ------------
 Symbolic Z-matrix:
 Charge =  0 Multiplicity = 1

                         Standard orientation:
 ---------------------------------------------------------------------
 Center     Atomic      Atomic             Coordinates (Angstroms)
 Number     Number       Type             X           Y           Z
 ---------------------------------------------------------------------
      1          6           0       -1.184747   -0.004564   -0.004044
      2          6           0        0.279288    0.003807    0.016428
      3          7           0        1.435645   -0.003373   -0.010326
      4          1           0       -1.511903   -0.098267    0.982781
      5          1           0       -1.577196   -0.800223   -0.583951
      6          1           0       -1.527662    0.926645   -0.400850
 ---------------------------------------------------------------------

 SCF Done:  E(RB2PLYPD3) =  -132.533728781     A.U. after   12 cycles
 E2(B2PLYPD3) =    -0.1802576405D+00 E(B2PLYPD3) =    -0.13271398642173D+03

 The electronic state is 1-A.
 Alpha  occ. eigenvalues --  -14.84222 -10.66303 -10.66210  -1.04001  -0.89894
 Alpha  occ. eigenvalues --   -0.59884  -0.54891  -0.54473  -0.44754  -0.39123
 Alpha  occ. eigenvalues --   -0.39064
 Alpha virt. eigenvalues --    0.03891   0.08103   0.08529   0.10196   0.11294
 Alpha virt. eigenvalues --    0.11353   0.15423   0.15927   0.16698   0.20104
 Alpha virt. eigenvalues --    0.20124   0.25227   0.32857   0.34974   0.35280

 Mulliken charges:
               1
     1  C   -0.074514
     2  C   -0.002421
     3  N   -0.208194
     4  H    0.095386
     5  H    0.095078
     6  H    0.094664
 Sum of Mulliken charges =   0.00000

 Dipole moment (field-independent basis, Debye):
    X=             -4.1441    Y=              0.0082    Z=              0.0246  Tot=              4.1442
 Quadrupole moment (field-independent basis, Debye-Ang):
   XX=            -20.9317   YY=            -17.7048   ZZ=            -17.7318
   XY=              0.0418   XZ=              0.0694   YZ=              0.0035

 Normal termination of Gaussian 09 at Wed Aug 26 22:19:53 2020.
