 Gaussian 09, Revision D.01,
 Gaussian 09:  ES64L-G09RevD.01 24-Apr-2013

 --------------------
 #p B2PLYPD3/Def2QZVP
 --------------------

 ------------
 cyanomethane
 ------------
 Symbolic Z-matrix:
 Charge =  0 Multiplicity = 1

                         Standard orientation:
 ---------------------------------------------------------------------
 Center     Atomic      Atomic             Coordinates (Angstroms)
 Number     Number       Type             X           Y           Z
 ---------------------------------------------------------------------
      1          6           0        1.165460   -0.004211    0.007059
      2          6           0       -0.274100    0.025116    0.001420
      3          7           0       -1.431576   -0.012907   -0.001865
      4          1           0        1.555473    1.016388   -0.098463
      5          1           0        1.562798   -0.602009   -0.833352
      6          1           0        1.554602   -0.449460    0.893992
 ---------------------------------------------------------------------

 SCF Done:  E(RB2PLYPD3) =  -132.534387420     A.U. after   11 cycles
 E2(B2PLYPD3) =    -0.1808178118D+00 E(B2PLYPD3) =    -0.13271520523185D+03

 The electronic state is 1-A.
 Alpha  occ. eigenvalues --  -14.84323 -10.66932 -10.66331  -1.04049  -0.89498
 Alpha  occ. eigenvalues --   -0.60397  -0.54292  -0.53347  -0.44876  -0.38987
 Alpha  occ. eigenvalues --   -0.38848
 Alpha virt. eigenvalues --    0.03753   0.07535   0.07845   0.10113   0.11422
 Alpha virt. eigenvalues --    0.11629   0.15558   0.16293   0.16624   0.20064
 Alpha virt. eigenvalues --    0.20161   0.25702   0.32868   0.34311   0.34954

 Mulliken charges:
               1
     1  C   -0.077093
     2  C    0.001078
     3  N   -0.207718
     4  H    0.094750
     5  H    0.092453
     6  H    0.096531
 Sum of Mulliken charges =   0.00000

 Dipole moment (field-independent basis, Debye):
    X=              4.1294    Y=              0.0048    Z=              0.0039  Tot=              4.1294
 Quadrupole moment (field-independent basis, Debye-Ang):
   XX=            -20.9074   YY=            -17.7182   ZZ=            -17.8372
   XY=             -0.1075   XZ=             -0.0170   YZ=             -0.0342

 Normal termination of Gaussian 09 at Thu Aug 27 00:12:20 2020.
