 Gaussian 09, Revision D.01,
 Gaussian 09:  ES64L-G09RevD.01 24-Apr-2013

 --------------------
 #p B2PLYPD3/Def2QZVP
 --------------------

 ------------
 cyanomethane
 ------------
 Symbolic Z-matrix:
 Charge =  0 Multiplicity = 1

                         Standard orientation:
 ---------------------------------------------------------------------
 Center     Atomic      Atomic             Coordinates (Angstroms)
 Number     Number       Type             X           Y           Z
 ---------------------------------------------------------------------
      1          6           0       -1.172607   -0.002405    0.000680
      2          6           0        0.286572    0.017599    0.004338
      3          7           0        1.432247   -0.004614   -0.002020
      4          1           0       -1.547045   -0.474237    0.888586
      5          1           0       -1.531940   -0.581119   -0.838142
      6          1           0       -1.630537    0.996495   -0.066406
 ---------------------------------------------------------------------

 SCF Done:  E(RB2PLYPD3) =  -132.535668361     A.U. after   11 cycles
 E2(B2PLYPD3) =    -0.1797061416D+00 E(B2PLYPD3) =    -0.13271537450290D+03

 The electronic state is 1-A.
 Alpha  occ. eigenvalues --  -14.84032 -10.66934 -10.66101  -1.04513  -0.89193
 Alpha  occ. eigenvalues --   -0.60172  -0.53864  -0.53525  -0.44840  -0.39360
 Alpha  occ. eigenvalues --   -0.39317
 Alpha virt. eigenvalues --    0.03790   0.07882   0.08185   0.10210   0.11533
 Alpha virt. eigenvalues --    0.11603   0.15469   0.16407   0.16841   0.20035
 Alpha virt. eigenvalues --    0.20055   0.25345   0.32793   0.34753   0.34919

 Mulliken charges:
               1
     1  C   -0.075307
     2  C   -0.001247
     3  N   -0.201188
     4  H    0.093287
     5  H    0.093086
     6  H    0.091370
 Sum of Mulliken charges =   0.00000

 Dipole moment (field-independent basis, Debye):
    X=             -4.1255    Y=             -0.0127    Z=              0.0032  Tot=              4.1256
 Quadrupole moment (field-independent basis, Debye-Ang):
   XX=            -20.8148   YY=            -17.7468   ZZ=            -17.7962
   XY=             -0.0017   XZ=              0.0059   YZ=             -0.0041

 Normal termination of Gaussian 09 at Wed Aug 26 23:11:08 2020.
