 Gaussian 09, Revision D.01,
 Gaussian 09:  ES64L-G09RevD.01 24-Apr-2013

 --------------------
 #p B2PLYPD3/Def2QZVP
 --------------------

 ------------
 cyanomethane
 ------------
 Symbolic Z-matrix:
 Charge =  0 Multiplicity = 1

                         Standard orientation:
 ---------------------------------------------------------------------
 Center     Atomic      Atomic             Coordinates (Angstroms)
 Number     Number       Type             X           Y           Z
 ---------------------------------------------------------------------
      1          6           0        1.179994   -0.009419   -0.012848
      2          6           0       -0.284266   -0.025906    0.013728
      3          7           0       -1.421493    0.014225   -0.006582
      4          1           0        1.521253    1.033198   -0.069727
      5          1           0        1.535661   -0.534789   -0.785005
      6          1           0        1.519170   -0.386037    0.895527
 ---------------------------------------------------------------------

 SCF Done:  E(RB2PLYPD3) =  -132.529639721     A.U. after   11 cycles
 E2(B2PLYPD3) =    -0.1785585147D+00 E(B2PLYPD3) =    -0.13270819823517D+03

 The electronic state is 1-A.
 Alpha  occ. eigenvalues --  -14.83642 -10.65775 -10.65658  -1.04723  -0.90177
 Alpha  occ. eigenvalues --   -0.59863  -0.56060  -0.53835  -0.44648  -0.39705
 Alpha  occ. eigenvalues --   -0.39387
 Alpha virt. eigenvalues --    0.03908   0.08495   0.09177   0.10238   0.11315
 Alpha virt. eigenvalues --    0.11689   0.15496   0.16059   0.16715   0.19988
 Alpha virt. eigenvalues --    0.20076   0.25260   0.33127   0.34461   0.35977

 Mulliken charges:
               1
     1  C   -0.075364
     2  C   -0.006403
     3  N   -0.199054
     4  H    0.090677
     5  H    0.097593
     6  H    0.092551
 Sum of Mulliken charges =   0.00000

 Dipole moment (field-independent basis, Debye):
    X=              4.1093    Y=             -0.0242    Z=              0.0242  Tot=              4.1094
 Quadrupole moment (field-independent basis, Debye-Ang):
   XX=            -20.9279   YY=            -17.6303   ZZ=            -17.6192
   XY=              0.0727   XZ=             -0.0174   YZ=              0.0511

 Normal termination of Gaussian 09 at Wed Aug 26 14:16:02 2020.
