 Gaussian 09, Revision D.01,
 Gaussian 09:  ES64L-G09RevD.01 24-Apr-2013

 --------------------
 #p B2PLYPD3/Def2QZVP
 --------------------

 ------------
 cyanomethane
 ------------
 Symbolic Z-matrix:
 Charge =  0 Multiplicity = 1

                         Standard orientation:
 ---------------------------------------------------------------------
 Center     Atomic      Atomic             Coordinates (Angstroms)
 Number     Number       Type             X           Y           Z
 ---------------------------------------------------------------------
      1          6           0       -1.166102    0.024428   -0.013014
      2          6           0        0.281901    0.002205    0.040740
      3          7           0        1.442597   -0.013524   -0.010865
      4          1           0       -1.428802    0.928458   -0.347470
      5          1           0       -1.754111   -0.212356    0.920866
      6          1           0       -1.610065   -0.781232   -0.663697
 ---------------------------------------------------------------------

 SCF Done:  E(RB2PLYPD3) =  -132.522259885     A.U. after   12 cycles
 E2(B2PLYPD3) =    -0.1814212316D+00 E(B2PLYPD3) =    -0.13270368111644D+03

 The electronic state is 1-A.
 Alpha  occ. eigenvalues --  -14.84624 -10.66852 -10.66711  -1.04014  -0.89585
 Alpha  occ. eigenvalues --   -0.61074  -0.55849  -0.51116  -0.45047  -0.39214
 Alpha  occ. eigenvalues --   -0.38645
 Alpha virt. eigenvalues --    0.03633   0.06641   0.08205   0.10239   0.11126
 Alpha virt. eigenvalues --    0.11874   0.15343   0.16655   0.17120   0.19959
 Alpha virt. eigenvalues --    0.20293   0.25607   0.32242   0.33812   0.35774

 Mulliken charges:
               1
     1  C   -0.067437
     2  C    0.007045
     3  N   -0.208877
     4  H    0.102487
     5  H    0.081977
     6  H    0.084806
 Sum of Mulliken charges =   0.00000

 Dipole moment (field-independent basis, Debye):
    X=             -4.1606    Y=              0.0063    Z=              0.0037  Tot=              4.1606
 Quadrupole moment (field-independent basis, Debye-Ang):
   XX=            -20.5496   YY=            -17.7212   ZZ=            -18.1186
   XY=              0.2882   XZ=             -0.0607   YZ=             -0.0939

 Normal termination of Gaussian 09 at Wed Aug 26 16:12:44 2020.
