 Gaussian 09, Revision D.01,
 Gaussian 09:  ES64L-G09RevD.01 24-Apr-2013

 --------------------
 #p B2PLYPD3/Def2QZVP
 --------------------

 ------------
 cyanomethane
 ------------
 Symbolic Z-matrix:
 Charge =  0 Multiplicity = 1

                         Standard orientation:
 ---------------------------------------------------------------------
 Center     Atomic      Atomic             Coordinates (Angstroms)
 Number     Number       Type             X           Y           Z
 ---------------------------------------------------------------------
      1          6           0       -1.176495   -0.000862   -0.006775
      2          6           0        0.282167   -0.003126   -0.006622
      3          7           0        1.437059    0.001838    0.002492
      4          1           0       -1.566925    1.045090   -0.029843
      5          1           0       -1.542659   -0.472583    0.935007
      6          1           0       -1.583853   -0.561451   -0.842221
 ---------------------------------------------------------------------

 SCF Done:  E(RB2PLYPD3) =  -132.534463758     A.U. after   11 cycles
 E2(B2PLYPD3) =    -0.1807312927D+00 E(B2PLYPD3) =    -0.13271519505111D+03

 The electronic state is 1-A.
 Alpha  occ. eigenvalues --  -14.84255 -10.67628 -10.66340  -1.04122  -0.88805
 Alpha  occ. eigenvalues --   -0.59721  -0.53789  -0.53063  -0.44833  -0.39117
 Alpha  occ. eigenvalues --   -0.38962
 Alpha virt. eigenvalues --    0.03663   0.07571   0.07783   0.10174   0.11414
 Alpha virt. eigenvalues --    0.11592   0.15369   0.16210   0.16617   0.20063
 Alpha virt. eigenvalues --    0.20103   0.25319   0.32560   0.34028   0.34721

 Mulliken charges:
               1
     1  C   -0.086922
     2  C    0.000041
     3  N   -0.205393
     4  H    0.097176
     5  H    0.095876
     6  H    0.099223
 Sum of Mulliken charges =   0.00000

 Dipole moment (field-independent basis, Debye):
    X=             -4.1265    Y=             -0.0092    Z=              0.0032  Tot=              4.1265
 Quadrupole moment (field-independent basis, Debye-Ang):
   XX=            -20.9917   YY=            -17.7661   ZZ=            -17.8166
   XY=              0.0036   XZ=             -0.0030   YZ=              0.0292

 Normal termination of Gaussian 09 at Wed Aug 26 10:01:18 2020.
