 Gaussian 09, Revision D.01,
 Gaussian 09:  ES64L-G09RevD.01 24-Apr-2013

 --------------------
 #p B2PLYPD3/Def2QZVP
 --------------------

 ------------
 cyanomethane
 ------------
 Symbolic Z-matrix:
 Charge =  0 Multiplicity = 1

                         Standard orientation:
 ---------------------------------------------------------------------
 Center     Atomic      Atomic             Coordinates (Angstroms)
 Number     Number       Type             X           Y           Z
 ---------------------------------------------------------------------
      1          6           0        1.170394   -0.007614   -0.002716
      2          6           0       -0.274043   -0.011602    0.014266
      3          7           0       -1.433427    0.008502   -0.004739
      4          1           0        1.515631   -0.838356   -0.571177
      5          1           0        1.584086   -0.039136    1.004766
      6          1           0        1.556166    0.933277   -0.469717
 ---------------------------------------------------------------------

 SCF Done:  E(RB2PLYPD3) =  -132.534112581     A.U. after   11 cycles
 E2(B2PLYPD3) =    -0.1809475178D+00 E(B2PLYPD3) =    -0.13271506009901D+03

 The electronic state is 1-A.
 Alpha  occ. eigenvalues --  -14.84339 -10.67042 -10.66369  -1.03952  -0.89437
 Alpha  occ. eigenvalues --   -0.60062  -0.54665  -0.53159  -0.44840  -0.38976
 Alpha  occ. eigenvalues --   -0.38784
 Alpha virt. eigenvalues --    0.03728   0.07456   0.07989   0.10150   0.11343
 Alpha virt. eigenvalues --    0.11604   0.15483   0.16303   0.16416   0.20082
 Alpha virt. eigenvalues --    0.20157   0.25582   0.32767   0.34131   0.35040

 Mulliken charges:
               1
     1  C   -0.081122
     2  C    0.000261
     3  N   -0.208657
     4  H    0.100093
     5  H    0.095596
     6  H    0.093829
 Sum of Mulliken charges =   0.00000

 Dipole moment (field-independent basis, Debye):
    X=              4.1322    Y=             -0.0108    Z=              0.0054  Tot=              4.1323
 Quadrupole moment (field-independent basis, Debye-Ang):
   XX=            -20.9720   YY=            -17.7617   ZZ=            -17.7788
   XY=              0.0823   XZ=              0.0142   YZ=              0.0525

 Normal termination of Gaussian 09 at Wed Aug 26 09:46:17 2020.
