 Gaussian 09, Revision D.01,
 Gaussian 09:  ES64L-G09RevD.01 24-Apr-2013

 --------------------
 #p B2PLYPD3/Def2QZVP
 --------------------

 ------------
 cyanomethane
 ------------
 Symbolic Z-matrix:
 Charge =  0 Multiplicity = 1

                         Standard orientation:
 ---------------------------------------------------------------------
 Center     Atomic      Atomic             Coordinates (Angstroms)
 Number     Number       Type             X           Y           Z
 ---------------------------------------------------------------------
      1          6           0        1.182520   -0.001328   -0.016722
      2          6           0       -0.297007   -0.056522   -0.006262
      3          7           0       -1.440684    0.034583   -0.004233
      4          1           0        1.685731    1.057677   -0.219755
      5          1           0        1.647136   -0.743012   -0.585704
      6          1           0        1.438841   -0.209650    0.972991
 ---------------------------------------------------------------------

 SCF Done:  E(RB2PLYPD3) =  -132.522507080     A.U. after   13 cycles
 E2(B2PLYPD3) =    -0.1802830996D+00 E(B2PLYPD3) =    -0.13270279017954D+03

 The electronic state is 1-A.
 Alpha  occ. eigenvalues --  -14.84206 -10.67298 -10.66372  -1.04511  -0.88959
 Alpha  occ. eigenvalues --   -0.60067  -0.54291  -0.52011  -0.44921  -0.39587
 Alpha  occ. eigenvalues --   -0.39189
 Alpha virt. eigenvalues --    0.03251   0.07276   0.08826   0.10208   0.11231
 Alpha virt. eigenvalues --    0.11699   0.15363   0.15445   0.18090   0.20034
 Alpha virt. eigenvalues --    0.20347   0.25204   0.31785   0.33762   0.35413

 Mulliken charges:
               1
     1  C   -0.081256
     2  C    0.004031
     3  N   -0.200756
     4  H    0.090473
     5  H    0.094246
     6  H    0.093263
 Sum of Mulliken charges =   0.00000

 Dipole moment (field-independent basis, Debye):
    X=              4.1287    Y=             -0.1004    Z=              0.0943  Tot=              4.1310
 Quadrupole moment (field-independent basis, Debye-Ang):
   XX=            -20.6976   YY=            -17.6564   ZZ=            -18.0351
   XY=              0.1645   XZ=              0.0227   YZ=              0.0612

 Normal termination of Gaussian 09 at Wed Aug 26 23:35:24 2020.
