 Gaussian 09, Revision D.01,
 Gaussian 09:  ES64L-G09RevD.01 24-Apr-2013

 --------------------
 #p B2PLYPD3/Def2QZVP
 --------------------

 ------------
 cyanomethane
 ------------
 Symbolic Z-matrix:
 Charge =  0 Multiplicity = 1

                         Standard orientation:
 ---------------------------------------------------------------------
 Center     Atomic      Atomic             Coordinates (Angstroms)
 Number     Number       Type             X           Y           Z
 ---------------------------------------------------------------------
      1          6           0       -1.163346    0.012087   -0.001472
      2          6           0        0.277922    0.029635    0.014520
      3          7           0        1.432503   -0.016540   -0.009161
      4          1           0       -1.586696   -0.627160   -0.791919
      5          1           0       -1.581418    0.934836   -0.113468
      6          1           0       -1.546861   -0.442226    0.891225
 ---------------------------------------------------------------------

 SCF Done:  E(RB2PLYPD3) =  -132.530917560     A.U. after   11 cycles
 E2(B2PLYPD3) =    -0.1803979248D+00 E(B2PLYPD3) =    -0.13271131548524D+03

 The electronic state is 1-A.
 Alpha  occ. eigenvalues --  -14.84341 -10.66361 -10.66116  -1.04197  -0.90011
 Alpha  occ. eigenvalues --   -0.61242  -0.55263  -0.52884  -0.44953  -0.39262
 Alpha  occ. eigenvalues --   -0.38902
 Alpha virt. eigenvalues --    0.03784   0.07564   0.08354   0.10138   0.11248
 Alpha virt. eigenvalues --    0.11760   0.15657   0.16496   0.16966   0.20019
 Alpha virt. eigenvalues --    0.20190   0.25689   0.33099   0.34373   0.35600

 Mulliken charges:
               1
     1  C   -0.059375
     2  C    0.003012
     3  N   -0.206658
     4  H    0.083906
     5  H    0.092313
     6  H    0.086802
 Sum of Mulliken charges =   0.00000

 Dipole moment (field-independent basis, Debye):
    X=             -4.1451    Y=              0.0077    Z=              0.0196  Tot=              4.1452
 Quadrupole moment (field-independent basis, Debye-Ang):
   XX=            -20.6514   YY=            -17.7160   ZZ=            -17.8827
   XY=              0.1295   XZ=              0.0679   YZ=             -0.0457

 Normal termination of Gaussian 09 at Wed Aug 26 10:51:26 2020.
