 Gaussian 09, Revision D.01,
 Gaussian 09:  ES64L-G09RevD.01 24-Apr-2013

 --------------------
 #p B2PLYPD3/Def2QZVP
 --------------------

 ------------
 cyanomethane
 ------------
 Symbolic Z-matrix:
 Charge =  0 Multiplicity = 1

                         Standard orientation:
 ---------------------------------------------------------------------
 Center     Atomic      Atomic             Coordinates (Angstroms)
 Number     Number       Type             X           Y           Z
 ---------------------------------------------------------------------
      1          6           0       -1.152324   -0.040593   -0.015355
      2          6           0        0.264311    0.053794   -0.028179
      3          7           0        1.432175   -0.021956    0.013635
      4          1           0       -1.576036   -0.804340   -0.618449
      5          1           0       -1.596380    1.026475   -0.318710
      6          1           0       -1.524737   -0.147649    1.102915
 ---------------------------------------------------------------------

 SCF Done:  E(RB2PLYPD3) =  -132.519105909     A.U. after   12 cycles
 E2(B2PLYPD3) =    -0.1830066677D+00 E(B2PLYPD3) =    -0.13270211257624D+03

 The electronic state is 1-A.
 Alpha  occ. eigenvalues --  -14.84737 -10.68444 -10.66701  -1.03651  -0.88844
 Alpha  occ. eigenvalues --   -0.60478  -0.54098  -0.51226  -0.45011  -0.38669
 Alpha  occ. eigenvalues --   -0.37975
 Alpha virt. eigenvalues --    0.03302   0.06138   0.06918   0.09879   0.11395
 Alpha virt. eigenvalues --    0.11912   0.15470   0.15595   0.17292   0.20088
 Alpha virt. eigenvalues --    0.20243   0.26190   0.31533   0.32567   0.34989

 Mulliken charges:
               1
     1  C   -0.098970
     2  C    0.011417
     3  N   -0.212111
     4  H    0.112387
     5  H    0.090375
     6  H    0.096902
 Sum of Mulliken charges =   0.00000

 Dipole moment (field-independent basis, Debye):
    X=             -4.0957    Y=              0.0237    Z=             -0.0011  Tot=              4.0958
 Quadrupole moment (field-independent basis, Debye-Ang):
   XX=            -21.1152   YY=            -17.8302   ZZ=            -17.8982
   XY=              0.0870   XZ=             -0.0757   YZ=              0.1524

 Normal termination of Gaussian 09 at Wed Aug 26 18:52:21 2020.
