 Gaussian 09, Revision D.01,
 Gaussian 09:  ES64L-G09RevD.01 24-Apr-2013

 --------------------
 #p B2PLYPD3/Def2QZVP
 --------------------

 ------------
 cyanomethane
 ------------
 Symbolic Z-matrix:
 Charge =  0 Multiplicity = 1

                         Standard orientation:
 ---------------------------------------------------------------------
 Center     Atomic      Atomic             Coordinates (Angstroms)
 Number     Number       Type             X           Y           Z
 ---------------------------------------------------------------------
      1          6           0        1.183011    0.000521   -0.009133
      2          6           0       -0.275474    0.021601    0.001227
      3          7           0       -1.439361   -0.011419   -0.000132
      4          1           0        1.537656   -0.254845    0.962896
      5          1           0        1.544122    0.920942   -0.251371
      6          1           0        1.548526   -0.718894   -0.663166
 ---------------------------------------------------------------------

 SCF Done:  E(RB2PLYPD3) =  -132.529981607     A.U. after   11 cycles
 E2(B2PLYPD3) =    -0.1807492621D+00 E(B2PLYPD3) =    -0.13271073086865D+03

 The electronic state is 1-A.
 Alpha  occ. eigenvalues --  -14.84472 -10.66540 -10.65649  -1.03741  -0.90391
 Alpha  occ. eigenvalues --   -0.60488  -0.55699  -0.54307  -0.44831  -0.39036
 Alpha  occ. eigenvalues --   -0.38861
 Alpha virt. eigenvalues --    0.03938   0.08060   0.08468   0.10190   0.11119
 Alpha virt. eigenvalues --    0.11378   0.15502   0.16173   0.16582   0.20107
 Alpha virt. eigenvalues --    0.20188   0.25324   0.32897   0.34942   0.35755

 Mulliken charges:
               1
     1  C   -0.062556
     2  C    0.000234
     3  N   -0.211955
     4  H    0.088756
     5  H    0.093322
     6  H    0.092199
 Sum of Mulliken charges =   0.00000

 Dipole moment (field-independent basis, Debye):
    X=              4.1641    Y=              0.0118    Z=              0.0074  Tot=              4.1641
 Quadrupole moment (field-independent basis, Debye-Ang):
   XX=            -20.8076   YY=            -17.7008   ZZ=            -17.7840
   XY=             -0.0704   XZ=              0.0117   YZ=              0.0042

 Normal termination of Gaussian 09 at Wed Aug 26 16:09:19 2020.
