 Gaussian 09, Revision D.01,
 Gaussian 09:  ES64L-G09RevD.01 24-Apr-2013

 --------------------
 #p B2PLYPD3/Def2QZVP
 --------------------

 ------------
 cyanomethane
 ------------
 Symbolic Z-matrix:
 Charge =  0 Multiplicity = 1

                         Standard orientation:
 ---------------------------------------------------------------------
 Center     Atomic      Atomic             Coordinates (Angstroms)
 Number     Number       Type             X           Y           Z
 ---------------------------------------------------------------------
      1          6           0       -1.149603    0.006228   -0.001029
      2          6           0        0.271849    0.028904   -0.020987
      3          7           0        1.422845   -0.029346    0.012552
      4          1           0       -1.381816    1.021190   -0.071052
      5          1           0       -1.659061   -0.426146    0.849462
      6          1           0       -1.652515   -0.600411   -0.734179
 ---------------------------------------------------------------------

 SCF Done:  E(RB2PLYPD3) =  -132.524087127     A.U. after   12 cycles
 E2(B2PLYPD3) =    -0.1805507064D+00 E(B2PLYPD3) =    -0.13270463783362D+03

 The electronic state is 1-A.
 Alpha  occ. eigenvalues --  -14.84207 -10.66200 -10.65998  -1.04368  -0.90404
 Alpha  occ. eigenvalues --   -0.62248  -0.55537  -0.51925  -0.44942  -0.39103
 Alpha  occ. eigenvalues --   -0.38756
 Alpha virt. eigenvalues --    0.03787   0.07111   0.08420   0.10021   0.11359
 Alpha virt. eigenvalues --    0.12068   0.15296   0.16546   0.17492   0.19909
 Alpha virt. eigenvalues --    0.20451   0.26125   0.33307   0.34628   0.35236

 Mulliken charges:
               1
     1  C   -0.062908
     2  C    0.007357
     3  N   -0.206805
     4  H    0.095512
     5  H    0.081875
     6  H    0.084970
 Sum of Mulliken charges =   0.00000

 Dipole moment (field-independent basis, Debye):
    X=             -4.1448    Y=              0.0105    Z=             -0.0025  Tot=              4.1448
 Quadrupole moment (field-independent basis, Debye-Ang):
   XX=            -20.5810   YY=            -17.4975   ZZ=            -18.1346
   XY=              0.4855   XZ=             -0.1341   YZ=              0.0047

 Normal termination of Gaussian 09 at Wed Aug 26 23:32:53 2020.
