 Gaussian 09, Revision D.01,
 Gaussian 09:  ES64L-G09RevD.01 24-Apr-2013

 --------------------
 #p B2PLYPD3/Def2QZVP
 --------------------

 ------------
 cyanomethane
 ------------
 Symbolic Z-matrix:
 Charge =  0 Multiplicity = 1

                         Standard orientation:
 ---------------------------------------------------------------------
 Center     Atomic      Atomic             Coordinates (Angstroms)
 Number     Number       Type             X           Y           Z
 ---------------------------------------------------------------------
      1          6           0        1.167996   -0.031644    0.010862
      2          6           0       -0.284589    0.040094    0.012454
      3          7           0       -1.451571   -0.013731   -0.011182
      4          1           0        1.676852    1.064404   -0.245710
      5          1           0        1.620943   -0.717132   -0.758749
      6          1           0        1.562757   -0.301851    0.942837
 ---------------------------------------------------------------------

 SCF Done:  E(RB2PLYPD3) =  -132.519445233     A.U. after   12 cycles
 E2(B2PLYPD3) =    -0.1826608693D+00 E(B2PLYPD3) =    -0.13270210610235D+03

 The electronic state is 1-A.
 Alpha  occ. eigenvalues --  -14.84945 -10.68425 -10.67050  -1.03803  -0.88346
 Alpha  occ. eigenvalues --   -0.60769  -0.53794  -0.50668  -0.45170  -0.39020
 Alpha  occ. eigenvalues --   -0.38479
 Alpha virt. eigenvalues --    0.03276   0.05939   0.07436   0.10023   0.11294
 Alpha virt. eigenvalues --    0.11727   0.15433   0.16350   0.17197   0.20075
 Alpha virt. eigenvalues --    0.20186   0.25552   0.30807   0.33423   0.34901

 Mulliken charges:
               1
     1  C   -0.081878
     2  C    0.010501
     3  N   -0.208639
     4  H    0.081397
     5  H    0.096644
     6  H    0.101975
 Sum of Mulliken charges =   0.00000

 Dipole moment (field-independent basis, Debye):
    X=              4.1219    Y=             -0.0306    Z=              0.0399  Tot=              4.1223
 Quadrupole moment (field-independent basis, Debye-Ang):
   XX=            -20.7620   YY=            -17.9931   ZZ=            -17.9793
   XY=             -0.1066   XZ=             -0.0697   YZ=              0.0096

 Normal termination of Gaussian 09 at Wed Aug 26 22:03:40 2020.
