 Gaussian 09, Revision D.01,
 Gaussian 09:  ES64L-G09RevD.01 24-Apr-2013

 --------------------
 #p B2PLYPD3/Def2QZVP
 --------------------

 ------------
 cyanomethane
 ------------
 Symbolic Z-matrix:
 Charge =  0 Multiplicity = 1

                         Standard orientation:
 ---------------------------------------------------------------------
 Center     Atomic      Atomic             Coordinates (Angstroms)
 Number     Number       Type             X           Y           Z
 ---------------------------------------------------------------------
      1          6           0        1.180220   -0.000715   -0.006070
      2          6           0       -0.284847   -0.019180    0.002625
      3          7           0       -1.433282    0.011729   -0.003191
      4          1           0        1.583697    0.982323   -0.260795
      5          1           0        1.562422   -0.718324   -0.662352
      6          1           0        1.514610   -0.226734    0.966157
 ---------------------------------------------------------------------

 SCF Done:  E(RB2PLYPD3) =  -132.534083009     A.U. after   12 cycles
 E2(B2PLYPD3) =    -0.1796801294D+00 E(B2PLYPD3) =    -0.13271376313831D+03

 The electronic state is 1-A.
 Alpha  occ. eigenvalues --  -14.84060 -10.66357 -10.66127  -1.04346  -0.89673
 Alpha  occ. eigenvalues --   -0.60049  -0.54819  -0.53838  -0.44786  -0.39379
 Alpha  occ. eigenvalues --   -0.39241
 Alpha virt. eigenvalues --    0.03848   0.08061   0.08626   0.10216   0.11338
 Alpha virt. eigenvalues --    0.11521   0.15458   0.16082   0.16914   0.20043
 Alpha virt. eigenvalues --    0.20096   0.25235   0.32895   0.34776   0.35385

 Mulliken charges:
               1
     1  C   -0.072285
     2  C   -0.002479
     3  N   -0.203601
     4  H    0.091905
     5  H    0.094291
     6  H    0.092168
 Sum of Mulliken charges =   0.00000

 Dipole moment (field-independent basis, Debye):
    X=              4.1351    Y=             -0.0279    Z=              0.0249  Tot=              4.1353
 Quadrupole moment (field-independent basis, Debye-Ang):
   XX=            -20.8418   YY=            -17.6853   ZZ=            -17.7758
   XY=              0.0690   XZ=             -0.0119   YZ=              0.0290

 Normal termination of Gaussian 09 at Wed Aug 26 23:57:35 2020.
