 Gaussian 09, Revision D.01,
 Gaussian 09:  ES64L-G09RevD.01 24-Apr-2013

 --------------------
 #p B2PLYPD3/Def2QZVP
 --------------------

 ------------
 cyanomethane
 ------------
 Symbolic Z-matrix:
 Charge =  0 Multiplicity = 1

                         Standard orientation:
 ---------------------------------------------------------------------
 Center     Atomic      Atomic             Coordinates (Angstroms)
 Number     Number       Type             X           Y           Z
 ---------------------------------------------------------------------
      1          6           0       -1.173248    0.001380    0.004253
      2          6           0        0.275578   -0.004869   -0.021644
      3          7           0        1.429034    0.003991    0.011880
      4          1           0       -1.548070   -0.198724    1.021643
      5          1           0       -1.514398   -0.786103   -0.669130
      6          1           0       -1.554748    0.977826   -0.331327
 ---------------------------------------------------------------------

 SCF Done:  E(RB2PLYPD3) =  -132.535124804     A.U. after   12 cycles
 E2(B2PLYPD3) =    -0.1805199509D+00 E(B2PLYPD3) =    -0.13271564475518D+03

 The electronic state is 1-A.
 Alpha  occ. eigenvalues --  -14.84118 -10.67302 -10.66145  -1.04130  -0.89215
 Alpha  occ. eigenvalues --   -0.59493  -0.54104  -0.53686  -0.44750  -0.38993
 Alpha  occ. eigenvalues --   -0.38971
 Alpha virt. eigenvalues --    0.03713   0.07653   0.08018   0.10149   0.11483
 Alpha virt. eigenvalues --    0.11564   0.15433   0.15950   0.16520   0.20080
 Alpha virt. eigenvalues --    0.20118   0.25513   0.32786   0.34410   0.34480

 Mulliken charges:
               1
     1  C   -0.090824
     2  C   -0.001373
     3  N   -0.206188
     4  H    0.099401
     5  H    0.099799
     6  H    0.099185
 Sum of Mulliken charges =   0.00000

 Dipole moment (field-independent basis, Debye):
    X=             -4.1122    Y=             -0.0095    Z=             -0.0170  Tot=              4.1123
 Quadrupole moment (field-independent basis, Debye-Ang):
   XX=            -21.1107   YY=            -17.7126   ZZ=            -17.7355
   XY=             -0.0413   XZ=             -0.0837   YZ=              0.0075

 Normal termination of Gaussian 09 at Thu Aug 27 00:14:11 2020.
