 Gaussian 09, Revision D.01,
 Gaussian 09:  ES64L-G09RevD.01 24-Apr-2013

 --------------------
 #p B2PLYPD3/Def2QZVP
 --------------------

 ------------
 cyanomethane
 ------------
 Symbolic Z-matrix:
 Charge =  0 Multiplicity = 1

                         Standard orientation:
 ---------------------------------------------------------------------
 Center     Atomic      Atomic             Coordinates (Angstroms)
 Number     Number       Type             X           Y           Z
 ---------------------------------------------------------------------
      1          6           0       -1.214203    0.017735   -0.000348
      2          6           0        0.273158    0.036453   -0.010288
      3          7           0        1.448889   -0.031859    0.010846
      4          1           0       -1.338749    1.023290   -0.261126
      5          1           0       -1.608428   -0.327102    0.998951
      6          1           0       -1.548775   -0.798300   -0.749934
 ---------------------------------------------------------------------

 SCF Done:  E(RB2PLYPD3) =  -132.517456311     A.U. after   12 cycles
 E2(B2PLYPD3) =    -0.1832554939D+00 E(B2PLYPD3) =    -0.13270071180503D+03

 The electronic state is 1-A.
 Alpha  occ. eigenvalues --  -14.84660 -10.68271 -10.66856  -1.03016  -0.88882
 Alpha  occ. eigenvalues --   -0.58340  -0.55572  -0.52010  -0.44526  -0.38486
 Alpha  occ. eigenvalues --   -0.38256
 Alpha virt. eigenvalues --    0.03372   0.06690   0.08665   0.10016   0.10701
 Alpha virt. eigenvalues --    0.11382   0.14438   0.15331   0.16216   0.20098
 Alpha virt. eigenvalues --    0.20294   0.24677   0.31733   0.32910   0.35053

 Mulliken charges:
               1
     1  C   -0.112535
     2  C   -0.000447
     3  N   -0.218054
     4  H    0.120886
     5  H    0.105374
     6  H    0.104775
 Sum of Mulliken charges =   0.00000

 Dipole moment (field-independent basis, Debye):
    X=             -4.1236    Y=              0.0089    Z=              0.0024  Tot=              4.1236
 Quadrupole moment (field-independent basis, Debye-Ang):
   XX=            -21.5729   YY=            -17.5418   ZZ=            -17.9654
   XY=              0.4559   XZ=             -0.1961   YZ=             -0.0691

 Normal termination of Gaussian 09 at Wed Aug 26 22:50:01 2020.
