 Gaussian 09, Revision D.01,
 Gaussian 09:  ES64L-G09RevD.01 24-Apr-2013

 --------------------
 #p B2PLYPD3/Def2QZVP
 --------------------

 ------------
 cyanomethane
 ------------
 Symbolic Z-matrix:
 Charge =  0 Multiplicity = 1

                         Standard orientation:
 ---------------------------------------------------------------------
 Center     Atomic      Atomic             Coordinates (Angstroms)
 Number     Number       Type             X           Y           Z
 ---------------------------------------------------------------------
      1          6           0        1.171126   -0.007724   -0.004951
      2          6           0       -0.279091   -0.018006   -0.000262
      3          7           0       -1.432641    0.015245   -0.000043
      4          1           0        1.622794    0.925927   -0.451764
      5          1           0        1.507948   -0.846090   -0.532731
      6          1           0        1.545535   -0.032174    1.016070
 ---------------------------------------------------------------------

 SCF Done:  E(RB2PLYPD3) =  -132.532843868     A.U. after   12 cycles
 E2(B2PLYPD3) =    -0.1804639951D+00 E(B2PLYPD3) =    -0.13271330786354D+03

 The electronic state is 1-A.
 Alpha  occ. eigenvalues --  -14.84219 -10.66963 -10.66253  -1.04187  -0.89409
 Alpha  occ. eigenvalues --   -0.60075  -0.54980  -0.52739  -0.44844  -0.39186
 Alpha  occ. eigenvalues --   -0.38939
 Alpha virt. eigenvalues --    0.03705   0.07379   0.08351   0.10162   0.11316
 Alpha virt. eigenvalues --    0.11693   0.15484   0.16121   0.16830   0.20027
 Alpha virt. eigenvalues --    0.20164   0.25497   0.32737   0.34174   0.35163

 Mulliken charges:
               1
     1  C   -0.078849
     2  C   -0.000587
     3  N   -0.205607
     4  H    0.091355
     5  H    0.099920
     6  H    0.093768
 Sum of Mulliken charges =   0.00000

 Dipole moment (field-independent basis, Debye):
    X=              4.1271    Y=             -0.0290    Z=              0.0154  Tot=              4.1272
 Quadrupole moment (field-independent basis, Debye-Ang):
   XX=            -20.9041   YY=            -17.7308   ZZ=            -17.8103
   XY=              0.1590   XZ=              0.0251   YZ=              0.0727

 Normal termination of Gaussian 09 at Thu Aug 27 01:03:59 2020.
