 Gaussian 09, Revision D.01,
 Gaussian 09:  ES64L-G09RevD.01 24-Apr-2013

 --------------------
 #p B2PLYPD3/Def2QZVP
 --------------------

 ------------
 cyanomethane
 ------------
 Symbolic Z-matrix:
 Charge =  0 Multiplicity = 1

                         Standard orientation:
 ---------------------------------------------------------------------
 Center     Atomic      Atomic             Coordinates (Angstroms)
 Number     Number       Type             X           Y           Z
 ---------------------------------------------------------------------
      1          6           0        1.179239    0.014980   -0.001910
      2          6           0       -0.279872   -0.022431    0.006205
      3          7           0       -1.429326    0.011281   -0.003788
      4          1           0        1.552073    1.007404   -0.209673
      5          1           0        1.534341   -0.706035   -0.764439
      6          1           0        1.522664   -0.335628    0.974856
 ---------------------------------------------------------------------

 SCF Done:  E(RB2PLYPD3) =  -132.535218280     A.U. after   12 cycles
 E2(B2PLYPD3) =    -0.1801332866D+00 E(B2PLYPD3) =    -0.13271535156701D+03

 The electronic state is 1-A.
 Alpha  occ. eigenvalues --  -14.83997 -10.67279 -10.66050  -1.04254  -0.89123
 Alpha  occ. eigenvalues --   -0.59278  -0.54389  -0.53546  -0.44704  -0.39211
 Alpha  occ. eigenvalues --   -0.39030
 Alpha virt. eigenvalues --    0.03735   0.07928   0.08118   0.10162   0.11433
 Alpha virt. eigenvalues --    0.11592   0.15368   0.15792   0.16664   0.20056
 Alpha virt. eigenvalues --    0.20103   0.25349   0.32731   0.34111   0.34928

 Mulliken charges:
               1
     1  C   -0.092089
     2  C   -0.002699
     3  N   -0.204325
     4  H    0.103074
     5  H    0.097530
     6  H    0.098509
 Sum of Mulliken charges =   0.00000

 Dipole moment (field-independent basis, Debye):
    X=              4.1096    Y=             -0.0259    Z=              0.0113  Tot=              4.1097
 Quadrupole moment (field-independent basis, Debye-Ang):
   XX=            -21.1285   YY=            -17.6476   ZZ=            -17.7649
   XY=              0.0556   XZ=             -0.0202   YZ=             -0.0212

 Normal termination of Gaussian 09 at Wed Aug 26 22:49:49 2020.
