 Gaussian 09, Revision D.01,
 Gaussian 09:  ES64L-G09RevD.01 24-Apr-2013

 --------------------
 #p B2PLYPD3/Def2QZVP
 --------------------

 ------------
 cyanomethane
 ------------
 Symbolic Z-matrix:
 Charge =  0 Multiplicity = 1

                         Standard orientation:
 ---------------------------------------------------------------------
 Center     Atomic      Atomic             Coordinates (Angstroms)
 Number     Number       Type             X           Y           Z
 ---------------------------------------------------------------------
      1          6           0       -1.192104    0.002607    0.007586
      2          6           0        0.291652    0.042472   -0.009144
      3          7           0        1.436321   -0.020798    0.001791
      4          1           0       -1.514766   -0.294824    0.996351
      5          1           0       -1.553701   -0.822277   -0.709828
      6          1           0       -1.583067    0.992207   -0.289713
 ---------------------------------------------------------------------

 SCF Done:  E(RB2PLYPD3) =  -132.532172146     A.U. after   12 cycles
 E2(B2PLYPD3) =    -0.1801368904D+00 E(B2PLYPD3) =    -0.13271230903636D+03

 The electronic state is 1-A.
 Alpha  occ. eigenvalues --  -14.83963 -10.68091 -10.66087  -1.04364  -0.88253
 Alpha  occ. eigenvalues --   -0.58650  -0.54282  -0.52496  -0.44684  -0.39411
 Alpha  occ. eigenvalues --   -0.39154
 Alpha virt. eigenvalues --    0.03536   0.07658   0.08253   0.10204   0.11251
 Alpha virt. eigenvalues --    0.11672   0.15149   0.16181   0.16306   0.19934
 Alpha virt. eigenvalues --    0.20105   0.24929   0.32222   0.33618   0.34877

 Mulliken charges:
               1
     1  C   -0.100423
     2  C   -0.003395
     3  N   -0.200854
     4  H    0.103533
     5  H    0.097418
     6  H    0.103721
 Sum of Mulliken charges =   0.00000

 Dipole moment (field-independent basis, Debye):
    X=             -4.1041    Y=              0.0131    Z=              0.0179  Tot=              4.1042
 Quadrupole moment (field-independent basis, Debye-Ang):
   XX=            -21.1771   YY=            -17.6250   ZZ=            -17.8480
   XY=              0.1313   XZ=             -0.0154   YZ=             -0.0609

 Normal termination of Gaussian 09 at Wed Aug 26 15:21:51 2020.
