 Gaussian 09, Revision D.01,
 Gaussian 09:  ES64L-G09RevD.01 24-Apr-2013

 --------------------
 #p B2PLYPD3/Def2QZVP
 --------------------

 ------------
 cyanomethane
 ------------
 Symbolic Z-matrix:
 Charge =  0 Multiplicity = 1

                         Standard orientation:
 ---------------------------------------------------------------------
 Center     Atomic      Atomic             Coordinates (Angstroms)
 Number     Number       Type             X           Y           Z
 ---------------------------------------------------------------------
      1          6           0       -1.150286   -0.014756    0.004562
      2          6           0        0.259702    0.054514   -0.020444
      3          7           0        1.432662   -0.026281    0.004136
      4          1           0       -1.628245   -0.563033   -0.864631
      5          1           0       -1.568740    1.034003    0.006613
      6          1           0       -1.488148   -0.525552    0.924365
 ---------------------------------------------------------------------

 SCF Done:  E(RB2PLYPD3) =  -132.527562399     A.U. after   12 cycles
 E2(B2PLYPD3) =    -0.1829766072D+00 E(B2PLYPD3) =    -0.13271053900605D+03

 The electronic state is 1-A.
 Alpha  occ. eigenvalues --  -14.84834 -10.67678 -10.66760  -1.03462  -0.89376
 Alpha  occ. eigenvalues --   -0.60551  -0.53642  -0.52917  -0.45011  -0.38305
 Alpha  occ. eigenvalues --   -0.38253
 Alpha virt. eigenvalues --    0.03523   0.06505   0.06972   0.09949   0.11490
 Alpha virt. eigenvalues --    0.11647   0.15635   0.15845   0.16889   0.20109
 Alpha virt. eigenvalues --    0.20280   0.26293   0.32545   0.33928   0.34314

 Mulliken charges:
               1
     1  C   -0.086061
     2  C    0.007312
     3  N   -0.214833
     4  H    0.096928
     5  H    0.094950
     6  H    0.101705
 Sum of Mulliken charges =   0.00000

 Dipole moment (field-independent basis, Debye):
    X=             -4.1275    Y=              0.0228    Z=              0.0114  Tot=              4.1276
 Quadrupole moment (field-independent basis, Debye-Ang):
   XX=            -20.9855   YY=            -17.8233   ZZ=            -17.8865
   XY=              0.1495   XZ=              0.0483   YZ=             -0.0182

 Normal termination of Gaussian 09 at Wed Aug 26 22:38:29 2020.
