 Gaussian 09, Revision D.01,
 Gaussian 09:  ES64L-G09RevD.01 24-Apr-2013

 --------------------
 #p B2PLYPD3/Def2QZVP
 --------------------

 ------------
 cyanomethane
 ------------
 Symbolic Z-matrix:
 Charge =  0 Multiplicity = 1

                         Standard orientation:
 ---------------------------------------------------------------------
 Center     Atomic      Atomic             Coordinates (Angstroms)
 Number     Number       Type             X           Y           Z
 ---------------------------------------------------------------------
      1          6           0       -1.184493   -0.009554    0.039004
      2          6           0        0.292186    0.062957   -0.028149
      3          7           0        1.405076   -0.033118    0.013569
      4          1           0       -1.524668   -0.108648    0.963353
      5          1           0       -1.484473   -0.951936   -0.630318
      6          1           0       -1.472548    0.971997   -0.493151
 ---------------------------------------------------------------------

 SCF Done:  E(RB2PLYPD3) =  -132.515100206     A.U. after   12 cycles
 E2(B2PLYPD3) =    -0.1780425362D+00 E(B2PLYPD3) =    -0.13269314274272D+03

 The electronic state is 1-A.
 Alpha  occ. eigenvalues --  -14.82956 -10.67892 -10.64987  -1.05468  -0.88624
 Alpha  occ. eigenvalues --   -0.59515  -0.53888  -0.52253  -0.44450  -0.40050
 Alpha  occ. eigenvalues --   -0.39498
 Alpha virt. eigenvalues --    0.03425   0.07899   0.08883   0.10076   0.11614
 Alpha virt. eigenvalues --    0.12122   0.15193   0.15350   0.16990   0.19830
 Alpha virt. eigenvalues --    0.20010   0.25297   0.31911   0.32410   0.34927

 Mulliken charges:
               1
     1  C   -0.123694
     2  C   -0.005888
     3  N   -0.185894
     4  H    0.113041
     5  H    0.099940
     6  H    0.102496
 Sum of Mulliken charges =   0.00000

 Dipole moment (field-independent basis, Debye):
    X=             -3.9838    Y=              0.0548    Z=             -0.0045  Tot=              3.9842
 Quadrupole moment (field-independent basis, Debye-Ang):
   XX=            -21.5184   YY=            -17.4816   ZZ=            -17.5875
   XY=              0.2287   XZ=             -0.1783   YZ=             -0.0459

 Normal termination of Gaussian 09 at Wed Aug 26 22:53:28 2020.
