 Gaussian 09, Revision D.01,
 Gaussian 09:  ES64L-G09RevD.01 24-Apr-2013

 --------------------
 #p B2PLYPD3/Def2QZVP
 --------------------

 ------------
 cyanomethane
 ------------
 Symbolic Z-matrix:
 Charge =  0 Multiplicity = 1

                         Standard orientation:
 ---------------------------------------------------------------------
 Center     Atomic      Atomic             Coordinates (Angstroms)
 Number     Number       Type             X           Y           Z
 ---------------------------------------------------------------------
      1          6           0        1.171681    0.018287    0.006859
      2          6           0       -0.269675   -0.003015   -0.037274
      3          7           0       -1.429868   -0.005287    0.015348
      4          1           0        1.466838    1.011496    0.006489
      5          1           0        1.607809   -0.550398   -0.805608
      6          1           0        1.522394   -0.515718    0.874174
 ---------------------------------------------------------------------

 SCF Done:  E(RB2PLYPD3) =  -132.531751446     A.U. after   11 cycles
 E2(B2PLYPD3) =    -0.1808273505D+00 E(B2PLYPD3) =    -0.13271257879674D+03

 The electronic state is 1-A.
 Alpha  occ. eigenvalues --  -14.84312 -10.66333 -10.66248  -1.03871  -0.90115
 Alpha  occ. eigenvalues --   -0.60197  -0.56105  -0.53177  -0.44785  -0.39011
 Alpha  occ. eigenvalues --   -0.38664
 Alpha virt. eigenvalues --    0.03842   0.07671   0.08320   0.10169   0.11139
 Alpha virt. eigenvalues --    0.11664   0.15437   0.16198   0.16427   0.20053
 Alpha virt. eigenvalues --    0.20212   0.25692   0.32899   0.34410   0.35565

 Mulliken charges:
               1
     1  C   -0.074702
     2  C   -0.000087
     3  N   -0.211078
     4  H    0.103198
     5  H    0.089745
     6  H    0.092924
 Sum of Mulliken charges =   0.00000

 Dipole moment (field-independent basis, Debye):
    X=              4.1390    Y=             -0.0219    Z=             -0.0099  Tot=              4.1390
 Quadrupole moment (field-independent basis, Debye-Ang):
   XX=            -20.9613   YY=            -17.5282   ZZ=            -17.9253
   XY=             -0.1938   XZ=              0.0518   YZ=             -0.0099

 Normal termination of Gaussian 09 at Wed Aug 26 10:26:55 2020.
