 Gaussian 09, Revision D.01,
 Gaussian 09:  ES64L-G09RevD.01 24-Apr-2013

 --------------------
 #p B2PLYPD3/Def2QZVP
 --------------------

 ------------
 cyanomethane
 ------------
 Symbolic Z-matrix:
 Charge =  0 Multiplicity = 1

                         Standard orientation:
 ---------------------------------------------------------------------
 Center     Atomic      Atomic             Coordinates (Angstroms)
 Number     Number       Type             X           Y           Z
 ---------------------------------------------------------------------
      1          6           0        1.190757   -0.025712   -0.006849
      2          6           0       -0.258861    0.072879    0.005757
      3          7           0       -1.437112   -0.040185   -0.009533
      4          1           0        1.450129    0.980593   -0.245324
      5          1           0        1.608086   -0.728238   -0.664841
      6          1           0        1.410189   -0.254062    0.983446
 ---------------------------------------------------------------------

 SCF Done:  E(RB2PLYPD3) =  -132.522131415     A.U. after   13 cycles
 E2(B2PLYPD3) =    -0.1829521468D+00 E(B2PLYPD3) =    -0.13270508356212D+03

 The electronic state is 1-A.
 Alpha  occ. eigenvalues --  -14.84843 -10.66913 -10.66076  -1.02978  -0.90525
 Alpha  occ. eigenvalues --   -0.59934  -0.55671  -0.54676  -0.44717  -0.38351
 Alpha  occ. eigenvalues --   -0.38182
 Alpha virt. eigenvalues --    0.03723   0.07289   0.08502   0.09809   0.11062
 Alpha virt. eigenvalues --    0.11256   0.14764   0.15472   0.16930   0.20205
 Alpha virt. eigenvalues --    0.20356   0.25743   0.32784   0.34686   0.35182

 Mulliken charges:
               1
     1  C   -0.090496
     2  C    0.004512
     3  N   -0.222155
     4  H    0.101188
     5  H    0.102379
     6  H    0.104572
 Sum of Mulliken charges =   0.00000

 Dipole moment (field-independent basis, Debye):
    X=              4.1294    Y=              0.0472    Z=              0.0294  Tot=              4.1297
 Quadrupole moment (field-independent basis, Debye-Ang):
   XX=            -21.2406   YY=            -17.6636   ZZ=            -17.7654
   XY=             -0.2820   XZ=             -0.1325   YZ=             -0.0017

 Normal termination of Gaussian 09 at Wed Aug 26 19:07:54 2020.
