 Gaussian 09, Revision D.01,
 Gaussian 09:  ES64L-G09RevD.01 24-Apr-2013

 --------------------
 #p B2PLYPD3/Def2QZVP
 --------------------

 ------------
 cyanomethane
 ------------
 Symbolic Z-matrix:
 Charge =  0 Multiplicity = 1

                         Standard orientation:
 ---------------------------------------------------------------------
 Center     Atomic      Atomic             Coordinates (Angstroms)
 Number     Number       Type             X           Y           Z
 ---------------------------------------------------------------------
      1          6           0        1.171718    0.014540   -0.013419
      2          6           0       -0.259784   -0.036432    0.028144
      3          7           0       -1.432074    0.019801   -0.011798
      4          1           0        1.481869   -0.618475   -0.786607
      5          1           0        1.522745   -0.376863    0.915108
      6          1           0        1.548303    0.988082   -0.134268
 ---------------------------------------------------------------------

 SCF Done:  E(RB2PLYPD3) =  -132.529765024     A.U. after   12 cycles
 E2(B2PLYPD3) =    -0.1818403968D+00 E(B2PLYPD3) =    -0.13271160542052D+03

 The electronic state is 1-A.
 Alpha  occ. eigenvalues --  -14.84627 -10.66616 -10.65879  -1.03388  -0.90576
 Alpha  occ. eigenvalues --   -0.60373  -0.55512  -0.54662  -0.44809  -0.38579
 Alpha  occ. eigenvalues --   -0.38419
 Alpha virt. eigenvalues --    0.03868   0.07614   0.08141   0.10039   0.11233
 Alpha virt. eigenvalues --    0.11345   0.15483   0.15645   0.16719   0.20212
 Alpha virt. eigenvalues --    0.20230   0.25911   0.33006   0.34723   0.35349

 Mulliken charges:
               1
     1  C   -0.074278
     2  C    0.002092
     3  N   -0.217666
     4  H    0.098404
     5  H    0.093081
     6  H    0.098366
 Sum of Mulliken charges =   0.00000

 Dipole moment (field-independent basis, Debye):
    X=              4.1484    Y=             -0.0353    Z=              0.0212  Tot=              4.1486
 Quadrupole moment (field-independent basis, Debye-Ang):
   XX=            -21.0179   YY=            -17.6828   ZZ=            -17.7585
   XY=              0.1163   XZ=             -0.0163   YZ=              0.0307

 Normal termination of Gaussian 09 at Wed Aug 26 10:43:18 2020.
