 Gaussian 09, Revision D.01,
 Gaussian 09:  ES64L-G09RevD.01 24-Apr-2013

 --------------------
 #p B2PLYPD3/Def2QZVP
 --------------------

 ------------
 cyanomethane
 ------------
 Symbolic Z-matrix:
 Charge =  0 Multiplicity = 1

                         Standard orientation:
 ---------------------------------------------------------------------
 Center     Atomic      Atomic             Coordinates (Angstroms)
 Number     Number       Type             X           Y           Z
 ---------------------------------------------------------------------
      1          6           0       -1.173752   -0.024963   -0.023032
      2          6           0        0.277916   -0.005191    0.041447
      3          7           0        1.449808    0.014989   -0.016440
      4          1           0       -1.610450   -0.133561    0.977412
      5          1           0       -1.468981   -0.796159   -0.615189
      6          1           0       -1.694214    1.005718   -0.357633
 ---------------------------------------------------------------------

 SCF Done:  E(RB2PLYPD3) =  -132.520179062     A.U. after   12 cycles
 E2(B2PLYPD3) =    -0.1826418764D+00 E(B2PLYPD3) =    -0.13270282093862D+03

 The electronic state is 1-A.
 Alpha  occ. eigenvalues --  -14.84935 -10.67531 -10.67014  -1.03520  -0.89173
 Alpha  occ. eigenvalues --   -0.60455  -0.55535  -0.51028  -0.45051  -0.38918
 Alpha  occ. eigenvalues --   -0.38343
 Alpha virt. eigenvalues --    0.03296   0.06461   0.07825   0.10134   0.11051
 Alpha virt. eigenvalues --    0.11642   0.15323   0.16027   0.17217   0.20042
 Alpha virt. eigenvalues --    0.20291   0.25568   0.31661   0.33165   0.35544

 Mulliken charges:
               1
     1  C   -0.076970
     2  C    0.006228
     3  N   -0.212682
     4  H    0.088987
     5  H    0.106782
     6  H    0.087654
 Sum of Mulliken charges =   0.00000

 Dipole moment (field-independent basis, Debye):
    X=             -4.1520    Y=             -0.0464    Z=              0.0646  Tot=              4.1528
 Quadrupole moment (field-independent basis, Debye-Ang):
   XX=            -20.7851   YY=            -17.8139   ZZ=            -18.0338
   XY=             -0.2032   XZ=             -0.0711   YZ=              0.1636

 Normal termination of Gaussian 09 at Wed Aug 26 19:48:43 2020.
