 Gaussian 09, Revision D.01,
 Gaussian 09:  ES64L-G09RevD.01 24-Apr-2013

 --------------------
 #p B2PLYPD3/Def2QZVP
 --------------------

 ------------
 cyanomethane
 ------------
 Symbolic Z-matrix:
 Charge =  0 Multiplicity = 1

                         Standard orientation:
 ---------------------------------------------------------------------
 Center     Atomic      Atomic             Coordinates (Angstroms)
 Number     Number       Type             X           Y           Z
 ---------------------------------------------------------------------
      1          6           0       -1.182632    0.013885   -0.006533
      2          6           0        0.269033   -0.033366    0.002760
      3          7           0        1.443274    0.018484   -0.003697
      4          1           0       -1.491447   -0.272069    0.968218
      5          1           0       -1.545340   -0.735717   -0.681899
      6          1           0       -1.584538    0.995284   -0.237809
 ---------------------------------------------------------------------

 SCF Done:  E(RB2PLYPD3) =  -132.531417739     A.U. after   12 cycles
 E2(B2PLYPD3) =    -0.1821655705D+00 E(B2PLYPD3) =    -0.13271358330945D+03

 The electronic state is 1-A.
 Alpha  occ. eigenvalues --  -14.84746 -10.66831 -10.66659  -1.03302  -0.89809
 Alpha  occ. eigenvalues --   -0.59978  -0.54634  -0.54250  -0.44841  -0.38639
 Alpha  occ. eigenvalues --   -0.38472
 Alpha virt. eigenvalues --    0.03753   0.07404   0.08031   0.10082   0.11165
 Alpha virt. eigenvalues --    0.11301   0.15423   0.15499   0.16892   0.20183
 Alpha virt. eigenvalues --    0.20239   0.25512   0.32658   0.34520   0.35051

 Mulliken charges:
               1
     1  C   -0.079035
     2  C    0.002024
     3  N   -0.216546
     4  H    0.096324
     5  H    0.096816
     6  H    0.100417
 Sum of Mulliken charges =   0.00000

 Dipole moment (field-independent basis, Debye):
    X=             -4.1620    Y=             -0.0435    Z=              0.0300  Tot=              4.1624
 Quadrupole moment (field-independent basis, Debye-Ang):
   XX=            -21.0031   YY=            -17.6786   ZZ=            -17.8950
   XY=             -0.0866   XZ=              0.0095   YZ=             -0.0008

 Normal termination of Gaussian 09 at Wed Aug 26 12:28:04 2020.
