 Gaussian 09, Revision D.01,
 Gaussian 09:  ES64L-G09RevD.01 24-Apr-2013

 --------------------
 #p B2PLYPD3/Def2QZVP
 --------------------

 ------------
 cyanomethane
 ------------
 Symbolic Z-matrix:
 Charge =  0 Multiplicity = 1

                         Standard orientation:
 ---------------------------------------------------------------------
 Center     Atomic      Atomic             Coordinates (Angstroms)
 Number     Number       Type             X           Y           Z
 ---------------------------------------------------------------------
      1          6           0       -1.173983    0.009031    0.006214
      2          6           0        0.278090   -0.001707   -0.009577
      3          7           0        1.431603    0.001564    0.005889
      4          1           0       -1.568010   -0.081675    1.017125
      5          1           0       -1.519258   -0.902981   -0.571726
      6          1           0       -1.558598    0.929768   -0.466443
 ---------------------------------------------------------------------

 SCF Done:  E(RB2PLYPD3) =  -132.533853254     A.U. after   11 cycles
 E2(B2PLYPD3) =    -0.1806494734D+00 E(B2PLYPD3) =    -0.13271450272692D+03

 The electronic state is 1-A.
 Alpha  occ. eigenvalues --  -14.84143 -10.67660 -10.66200  -1.04152  -0.88911
 Alpha  occ. eigenvalues --   -0.59537  -0.53974  -0.53103  -0.44773  -0.39089
 Alpha  occ. eigenvalues --   -0.38889
 Alpha virt. eigenvalues --    0.03658   0.07634   0.07737   0.10150   0.11457
 Alpha virt. eigenvalues --    0.11654   0.15379   0.15968   0.16617   0.20065
 Alpha virt. eigenvalues --    0.20118   0.25435   0.32558   0.33821   0.34733

 Mulliken charges:
               1
     1  C   -0.093264
     2  C   -0.000207
     3  N   -0.205454
     4  H    0.100189
     5  H    0.097127
     6  H    0.101609
 Sum of Mulliken charges =   0.00000

 Dipole moment (field-independent basis, Debye):
    X=             -4.1125    Y=             -0.0092    Z=              0.0028  Tot=              4.1125
 Quadrupole moment (field-independent basis, Debye-Ang):
   XX=            -21.1073   YY=            -17.6919   ZZ=            -17.8099
   XY=             -0.0179   XZ=             -0.0858   YZ=             -0.0351

 Normal termination of Gaussian 09 at Wed Aug 26 23:57:10 2020.
