 Gaussian 09, Revision D.01,
 Gaussian 09:  ES64L-G09RevD.01 24-Apr-2013

 --------------------
 #p B2PLYPD3/Def2QZVP
 --------------------

 ------------
 cyanomethane
 ------------
 Symbolic Z-matrix:
 Charge =  0 Multiplicity = 1

                         Standard orientation:
 ---------------------------------------------------------------------
 Center     Atomic      Atomic             Coordinates (Angstroms)
 Number     Number       Type             X           Y           Z
 ---------------------------------------------------------------------
      1          6           0       -1.178373    0.011345   -0.002530
      2          6           0        0.285168   -0.002923   -0.011024
      3          7           0        1.433841    0.000325    0.003941
      4          1           0       -1.560397    1.026337   -0.014087
      5          1           0       -1.533274   -0.510919    0.924252
      6          1           0       -1.583987   -0.568226   -0.856429
 ---------------------------------------------------------------------

 SCF Done:  E(RB2PLYPD3) =  -132.534771422     A.U. after   12 cycles
 E2(B2PLYPD3) =    -0.1801866230D+00 E(B2PLYPD3) =    -0.13271495804488D+03

 The electronic state is 1-A.
 Alpha  occ. eigenvalues --  -14.84055 -10.67638 -10.66141  -1.04342  -0.88730
 Alpha  occ. eigenvalues --   -0.59465  -0.54114  -0.52848  -0.44776  -0.39309
 Alpha  occ. eigenvalues --   -0.39076
 Alpha virt. eigenvalues --    0.03672   0.07730   0.07961   0.10194   0.11413
 Alpha virt. eigenvalues --    0.11681   0.15336   0.16144   0.16665   0.20020
 Alpha virt. eigenvalues --    0.20089   0.25238   0.32584   0.33900   0.34903

 Mulliken charges:
               1
     1  C   -0.089676
     2  C   -0.001731
     3  N   -0.202449
     4  H    0.101636
     5  H    0.095655
     6  H    0.096564
 Sum of Mulliken charges =   0.00000

 Dipole moment (field-independent basis, Debye):
    X=             -4.1163    Y=             -0.0104    Z=              0.0005  Tot=              4.1163
 Quadrupole moment (field-independent basis, Debye-Ang):
   XX=            -21.0276   YY=            -17.6838   ZZ=            -17.8376
   XY=              0.0263   XZ=             -0.0022   YZ=              0.0103

 Normal termination of Gaussian 09 at Thu Aug 27 00:06:56 2020.
