 Gaussian 09, Revision D.01,
 Gaussian 09:  ES64L-G09RevD.01 24-Apr-2013

 --------------------
 #p B2PLYPD3/Def2QZVP
 --------------------

 ------------
 cyanomethane
 ------------
 Symbolic Z-matrix:
 Charge =  0 Multiplicity = 1

                         Standard orientation:
 ---------------------------------------------------------------------
 Center     Atomic      Atomic             Coordinates (Angstroms)
 Number     Number       Type             X           Y           Z
 ---------------------------------------------------------------------
      1          6           0       -1.176872    0.003374   -0.012865
      2          6           0        0.282874    0.016630   -0.001120
      3          7           0        1.429632   -0.007130    0.003464
      4          1           0       -1.566075   -0.127417    0.999242
      5          1           0       -1.513498   -0.853453   -0.557523
      6          1           0       -1.563860    0.910755   -0.382050
 ---------------------------------------------------------------------

 SCF Done:  E(RB2PLYPD3) =  -132.534987336     A.U. after   11 cycles
 E2(B2PLYPD3) =    -0.1796141325D+00 E(B2PLYPD3) =    -0.13271460146840D+03

 The electronic state is 1-A.
 Alpha  occ. eigenvalues --  -14.83968 -10.66568 -10.66020  -1.04409  -0.89562
 Alpha  occ. eigenvalues --   -0.59917  -0.55260  -0.53233  -0.44754  -0.39431
 Alpha  occ. eigenvalues --   -0.39141
 Alpha virt. eigenvalues --    0.03842   0.08065   0.08466   0.10216   0.11299
 Alpha virt. eigenvalues --    0.11702   0.15433   0.16277   0.16650   0.19991
 Alpha virt. eigenvalues --    0.20125   0.25314   0.32923   0.34385   0.35508

 Mulliken charges:
               1
     1  C   -0.076350
     2  C   -0.003169
     3  N   -0.202797
     4  H    0.088462
     5  H    0.096389
     6  H    0.097465
 Sum of Mulliken charges =   0.00000

 Dipole moment (field-independent basis, Debye):
    X=             -4.1263    Y=             -0.0011    Z=              0.0152  Tot=              4.1263
 Quadrupole moment (field-independent basis, Debye-Ang):
   XX=            -20.9131   YY=            -17.5800   ZZ=            -17.8542
   XY=              0.0339   XZ=             -0.0993   YZ=             -0.0041

 Normal termination of Gaussian 09 at Wed Aug 26 14:15:38 2020.
