 Gaussian 09, Revision D.01,
 Gaussian 09:  ES64L-G09RevD.01 24-Apr-2013

 --------------------
 #p B2PLYPD3/Def2QZVP
 --------------------

 ------------
 cyanomethane
 ------------
 Symbolic Z-matrix:
 Charge =  0 Multiplicity = 1

                         Standard orientation:
 ---------------------------------------------------------------------
 Center     Atomic      Atomic             Coordinates (Angstroms)
 Number     Number       Type             X           Y           Z
 ---------------------------------------------------------------------
      1          6           0        1.200891   -0.016254   -0.007530
      2          6           0       -0.274050   -0.042350    0.054536
      3          7           0       -1.449214    0.037998   -0.029592
      4          1           0        1.453623   -0.205604    0.948838
      5          1           0        1.723488    1.016073   -0.302113
      6          1           0        1.406343   -0.724833   -0.721613
 ---------------------------------------------------------------------

 SCF Done:  E(RB2PLYPD3) =  -132.510938890     A.U. after   13 cycles
 E2(B2PLYPD3) =    -0.1831354188D+00 E(B2PLYPD3) =    -0.13269407430872D+03

 The electronic state is 1-A.
 Alpha  occ. eigenvalues --  -14.84955 -10.67040 -10.66938  -1.03091  -0.89858
 Alpha  occ. eigenvalues --   -0.58804  -0.57531  -0.51763  -0.44786  -0.38681
 Alpha  occ. eigenvalues --   -0.38254
 Alpha virt. eigenvalues --    0.03030   0.06800   0.08922   0.10032   0.10674
 Alpha virt. eigenvalues --    0.11329   0.14962   0.15257   0.17039   0.20148
 Alpha virt. eigenvalues --    0.20338   0.25207   0.31558   0.33589   0.35970

 Mulliken charges:
               1
     1  C   -0.096902
     2  C    0.001924
     3  N   -0.217455
     4  H    0.109118
     5  H    0.091009
     6  H    0.112306
 Sum of Mulliken charges =   0.00000

 Dipole moment (field-independent basis, Debye):
    X=              4.1314    Y=             -0.0721    Z=              0.0544  Tot=              4.1323
 Quadrupole moment (field-independent basis, Debye-Ang):
   XX=            -21.1192   YY=            -17.8875   ZZ=            -17.7286
   XY=              0.4019   XZ=             -0.1288   YZ=              0.1196

 Normal termination of Gaussian 09 at Thu Aug 27 00:52:04 2020.
