 Gaussian 09, Revision D.01,
 Gaussian 09:  ES64L-G09RevD.01 24-Apr-2013

 --------------------
 #p B2PLYPD3/Def2QZVP
 --------------------

 ------------
 cyanomethane
 ------------
 Symbolic Z-matrix:
 Charge =  0 Multiplicity = 1

                         Standard orientation:
 ---------------------------------------------------------------------
 Center     Atomic      Atomic             Coordinates (Angstroms)
 Number     Number       Type             X           Y           Z
 ---------------------------------------------------------------------
      1          6           0        1.174894   -0.033576   -0.012114
      2          6           0       -0.280250    0.046399   -0.009561
      3          7           0       -1.447286   -0.026761    0.004037
      4          1           0        1.503101    1.061554    0.007677
      5          1           0        1.664276   -0.499115   -0.751562
      6          1           0        1.595755   -0.452053    0.845671
 ---------------------------------------------------------------------

 SCF Done:  E(RB2PLYPD3) =  -132.519862164     A.U. after   12 cycles
 E2(B2PLYPD3) =    -0.1818896288D+00 E(B2PLYPD3) =    -0.13270175179297D+03

 The electronic state is 1-A.
 Alpha  occ. eigenvalues --  -14.84855 -10.67025 -10.66296  -1.03709  -0.89889
 Alpha  occ. eigenvalues --   -0.62388  -0.54332  -0.52600  -0.45094  -0.39059
 Alpha  occ. eigenvalues --   -0.38582
 Alpha virt. eigenvalues --    0.03775   0.07413   0.07597   0.09830   0.11395
 Alpha virt. eigenvalues --    0.11541   0.15283   0.16099   0.17876   0.20064
 Alpha virt. eigenvalues --    0.20473   0.25590   0.32237   0.33718   0.35916

 Mulliken charges:
               1
     1  C   -0.060171
     2  C    0.015816
     3  N   -0.212767
     4  H    0.081647
     5  H    0.090435
     6  H    0.085040
 Sum of Mulliken charges =   0.00000

 Dipole moment (field-independent basis, Debye):
    X=              4.1562    Y=              0.0135    Z=              0.0159  Tot=              4.1563
 Quadrupole moment (field-independent basis, Debye-Ang):
   XX=            -20.5827   YY=            -17.7723   ZZ=            -18.0354
   XY=             -0.2906   XZ=              0.0432   YZ=              0.0397

 Normal termination of Gaussian 09 at Wed Aug 26 21:44:57 2020.
