 Gaussian 09, Revision D.01,
 Gaussian 09:  ES64L-G09RevD.01 24-Apr-2013

 --------------------
 #p B2PLYPD3/Def2QZVP
 --------------------

 ------------
 cyanomethane
 ------------
 Symbolic Z-matrix:
 Charge =  0 Multiplicity = 1

                         Standard orientation:
 ---------------------------------------------------------------------
 Center     Atomic      Atomic             Coordinates (Angstroms)
 Number     Number       Type             X           Y           Z
 ---------------------------------------------------------------------
      1          6           0       -1.158249    0.050412    0.013842
      2          6           0        0.289022   -0.027381   -0.061452
      3          7           0        1.418409    0.007641    0.027122
      4          1           0       -1.560369    1.030368   -0.008367
      5          1           0       -1.528596   -0.578979    0.934361
      6          1           0       -1.624538   -0.643063   -0.830189
 ---------------------------------------------------------------------

 SCF Done:  E(RB2PLYPD3) =  -132.521758095     A.U. after   12 cycles
 E2(B2PLYPD3) =    -0.1797655554D+00 E(B2PLYPD3) =    -0.13270152365024D+03

 The electronic state is 1-A.
 Alpha  occ. eigenvalues --  -14.83699 -10.68464 -10.65707  -1.05084  -0.88181
 Alpha  occ. eigenvalues --   -0.59678  -0.54739  -0.50430  -0.44839  -0.39844
 Alpha  occ. eigenvalues --   -0.38816
 Alpha virt. eigenvalues --    0.03367   0.06902   0.07854   0.10018   0.11500
 Alpha virt. eigenvalues --    0.12337   0.15327   0.15756   0.17815   0.19844
 Alpha virt. eigenvalues --    0.20086   0.25865   0.31685   0.32786   0.35380

 Mulliken charges:
               1
     1  C   -0.099154
     2  C    0.003142
     3  N   -0.192891
     4  H    0.112604
     5  H    0.092266
     6  H    0.084033
 Sum of Mulliken charges =   0.00000

 Dipole moment (field-independent basis, Debye):
    X=             -4.0478    Y=             -0.0492    Z=             -0.0296  Tot=              4.0482
 Quadrupole moment (field-independent basis, Debye-Ang):
   XX=            -21.0459   YY=            -17.4350   ZZ=            -18.1163
   XY=              0.0794   XZ=             -0.1384   YZ=             -0.0488

 Normal termination of Gaussian 09 at Wed Aug 26 18:38:46 2020.
