 Gaussian 09, Revision D.01,
 Gaussian 09:  ES64L-G09RevD.01 24-Apr-2013

 --------------------
 #p B2PLYPD3/Def2QZVP
 --------------------

 ------------
 cyanomethane
 ------------
 Symbolic Z-matrix:
 Charge =  0 Multiplicity = 1

                         Standard orientation:
 ---------------------------------------------------------------------
 Center     Atomic      Atomic             Coordinates (Angstroms)
 Number     Number       Type             X           Y           Z
 ---------------------------------------------------------------------
      1          6           0        1.204087    0.002928   -0.007294
      2          6           0       -0.293187   -0.066397    0.014855
      3          7           0       -1.442007    0.038900   -0.017420
      4          1           0        1.643835    1.050683   -0.344449
      5          1           0        1.588554   -0.816102   -0.617034
      6          1           0        1.396265   -0.126069    1.038053
 ---------------------------------------------------------------------

 SCF Done:  E(RB2PLYPD3) =  -132.523531233     A.U. after   13 cycles
 E2(B2PLYPD3) =    -0.1811402350D+00 E(B2PLYPD3) =    -0.13270467146817D+03

 The electronic state is 1-A.
 Alpha  occ. eigenvalues --  -14.84199 -10.68325 -10.66351  -1.04050  -0.88204
 Alpha  occ. eigenvalues --   -0.58103  -0.54575  -0.52133  -0.44668  -0.39249
 Alpha  occ. eigenvalues --   -0.38949
 Alpha virt. eigenvalues --    0.03152   0.07163   0.08835   0.10158   0.11095
 Alpha virt. eigenvalues --    0.11400   0.14973   0.15085   0.17202   0.20054
 Alpha virt. eigenvalues --    0.20137   0.24927   0.31759   0.33438   0.34832

 Mulliken charges:
               1
     1  C   -0.108234
     2  C   -0.001141
     3  N   -0.204413
     4  H    0.100108
     5  H    0.106317
     6  H    0.107363
 Sum of Mulliken charges =   0.00000

 Dipole moment (field-independent basis, Debye):
    X=              4.1027    Y=             -0.0674    Z=              0.0647  Tot=              4.1038
 Quadrupole moment (field-independent basis, Debye-Ang):
   XX=            -21.2361   YY=            -17.6792   ZZ=            -17.8464
   XY=              0.2608   XZ=             -0.1931   YZ=              0.0662

 Normal termination of Gaussian 09 at Wed Aug 26 22:23:36 2020.
