 Gaussian 09, Revision D.01,
 Gaussian 09:  ES64L-G09RevD.01 24-Apr-2013

 --------------------
 #p B2PLYPD3/Def2QZVP
 --------------------

 ------------
 cyanomethane
 ------------
 Symbolic Z-matrix:
 Charge =  0 Multiplicity = 1

                         Standard orientation:
 ---------------------------------------------------------------------
 Center     Atomic      Atomic             Coordinates (Angstroms)
 Number     Number       Type             X           Y           Z
 ---------------------------------------------------------------------
      1          6           0        1.202809   -0.014654    0.005151
      2          6           0       -0.288229    0.023245   -0.019287
      3          7           0       -1.444705    0.003635    0.001887
      4          1           0        1.468262   -0.810465   -0.635124
      5          1           0        1.397805   -0.227403    1.002062
      6          1           0        1.759391    0.960877   -0.295334
 ---------------------------------------------------------------------

 SCF Done:  E(RB2PLYPD3) =  -132.525906243     A.U. after   12 cycles
 E2(B2PLYPD3) =    -0.1807882226D+00 E(B2PLYPD3) =    -0.13270669446517D+03

 The electronic state is 1-A.
 Alpha  occ. eigenvalues --  -14.84219 -10.67383 -10.66432  -1.03937  -0.89102
 Alpha  occ. eigenvalues --   -0.58610  -0.55554  -0.52732  -0.44654  -0.39156
 Alpha  occ. eigenvalues --   -0.39032
 Alpha virt. eigenvalues --    0.03662   0.07332   0.08923   0.10332   0.11192
 Alpha virt. eigenvalues --    0.11394   0.14961   0.15363   0.17019   0.20098
 Alpha virt. eigenvalues --    0.20127   0.24668   0.31576   0.34638   0.35165

 Mulliken charges:
               1
     1  C   -0.097568
     2  C   -0.002855
     3  N   -0.207881
     4  H    0.105483
     5  H    0.107665
     6  H    0.095156
 Sum of Mulliken charges =   0.00000

 Dipole moment (field-independent basis, Debye):
    X=              4.1475    Y=             -0.0408    Z=              0.0257  Tot=              4.1478
 Quadrupole moment (field-independent basis, Debye-Ang):
   XX=            -21.0650   YY=            -17.7515   ZZ=            -17.7864
   XY=              0.1923   XZ=             -0.0625   YZ=              0.0502

 Normal termination of Gaussian 09 at Wed Aug 26 22:49:07 2020.
