 Gaussian 09, Revision D.01,
 Gaussian 09:  ES64L-G09RevD.01 24-Apr-2013

 --------------------
 #p B2PLYPD3/Def2QZVP
 --------------------

 ------------
 cyanomethane
 ------------
 Symbolic Z-matrix:
 Charge =  0 Multiplicity = 1

                         Standard orientation:
 ---------------------------------------------------------------------
 Center     Atomic      Atomic             Coordinates (Angstroms)
 Number     Number       Type             X           Y           Z
 ---------------------------------------------------------------------
      1          6           0       -1.154235    0.003461    0.014571
      2          6           0        0.283116    0.005021    0.022602
      3          7           0        1.424578   -0.008104   -0.018224
      4          1           0       -1.674531   -0.636252   -0.798163
      5          1           0       -1.523079    0.998436   -0.191503
      6          1           0       -1.547718   -0.356347    0.894203
 ---------------------------------------------------------------------

 SCF Done:  E(RB2PLYPD3) =  -132.528787495     A.U. after   12 cycles
 E2(B2PLYPD3) =    -0.1796267605D+00 E(B2PLYPD3) =    -0.13270841425559D+03

 The electronic state is 1-A.
 Alpha  occ. eigenvalues --  -14.83992 -10.66755 -10.65971  -1.04771  -0.89547
 Alpha  occ. eigenvalues --   -0.60975  -0.55134  -0.51830  -0.44935  -0.39558
 Alpha  occ. eigenvalues --   -0.39091
 Alpha virt. eigenvalues --    0.03615   0.07186   0.08539   0.10148   0.11467
 Alpha virt. eigenvalues --    0.12007   0.15657   0.16496   0.17220   0.19939
 Alpha virt. eigenvalues --    0.20176   0.25762   0.32712   0.34072   0.35453

 Mulliken charges:
               1
     1  C   -0.069577
     2  C    0.001212
     3  N   -0.198945
     4  H    0.080980
     5  H    0.091572
     6  H    0.094757
 Sum of Mulliken charges =   0.00000

 Dipole moment (field-independent basis, Debye):
    X=             -4.1110    Y=              0.0231    Z=              0.0414  Tot=              4.1113
 Quadrupole moment (field-independent basis, Debye-Ang):
   XX=            -20.6672   YY=            -17.7748   ZZ=            -17.8243
   XY=              0.1127   XZ=              0.1608   YZ=             -0.1180

 Normal termination of Gaussian 09 at Wed Aug 26 14:20:02 2020.
