 Gaussian 09, Revision D.01,
 Gaussian 09:  ES64L-G09RevD.01 24-Apr-2013

 --------------------
 #p B2PLYPD3/Def2QZVP
 --------------------

 ------------
 cyanomethane
 ------------
 Symbolic Z-matrix:
 Charge =  0 Multiplicity = 1

                         Standard orientation:
 ---------------------------------------------------------------------
 Center     Atomic      Atomic             Coordinates (Angstroms)
 Number     Number       Type             X           Y           Z
 ---------------------------------------------------------------------
      1          6           0        1.194177    0.016503   -0.025288
      2          6           0       -0.284807    0.019908   -0.040335
      3          7           0       -1.432781   -0.023769    0.032382
      4          1           0        1.716346   -0.609246    0.862776
      5          1           0        1.378593    1.008768    0.153500
      6          1           0        1.478315   -0.451604   -0.849210
 ---------------------------------------------------------------------

 SCF Done:  E(RB2PLYPD3) =  -132.510592403     A.U. after   12 cycles
 E2(B2PLYPD3) =    -0.1804460390D+00 E(B2PLYPD3) =    -0.13269103844161D+03

 The electronic state is 1-A.
 Alpha  occ. eigenvalues --  -14.84077 -10.66799 -10.66126  -1.04231  -0.89849
 Alpha  occ. eigenvalues --   -0.59532  -0.57548  -0.51007  -0.44668  -0.39506
 Alpha  occ. eigenvalues --   -0.38783
 Alpha virt. eigenvalues --    0.03216   0.07228   0.09580   0.10255   0.10871
 Alpha virt. eigenvalues --    0.11678   0.15102   0.15582   0.16937   0.19995
 Alpha virt. eigenvalues --    0.20185   0.24950   0.31336   0.33690   0.36484

 Mulliken charges:
               1
     1  C   -0.095140
     2  C   -0.004792
     3  N   -0.204502
     4  H    0.082470
     5  H    0.112178
     6  H    0.109786
 Sum of Mulliken charges =   0.00000

 Dipole moment (field-independent basis, Debye):
    X=              4.0934    Y=              0.0410    Z=             -0.0642  Tot=              4.0941
 Quadrupole moment (field-independent basis, Debye-Ang):
   XX=            -21.1027   YY=            -17.5840   ZZ=            -17.8530
   XY=             -0.3442   XZ=              0.2947   YZ=              0.2252

 Normal termination of Gaussian 09 at Wed Aug 26 22:48:54 2020.
