 Gaussian 09, Revision D.01,
 Gaussian 09:  ES64L-G09RevD.01 24-Apr-2013

 --------------------
 #p B2PLYPD3/Def2QZVP
 --------------------

 ------------
 cyanomethane
 ------------
 Symbolic Z-matrix:
 Charge =  0 Multiplicity = 1

                         Standard orientation:
 ---------------------------------------------------------------------
 Center     Atomic      Atomic             Coordinates (Angstroms)
 Number     Number       Type             X           Y           Z
 ---------------------------------------------------------------------
      1          6           0       -1.195068   -0.008930    0.011239
      2          6           0        0.277754   -0.031682   -0.019113
      3          7           0        1.441817    0.017997    0.005336
      4          1           0       -1.480434   -0.161176    0.997673
      5          1           0       -1.555301   -0.746303   -0.660321
      6          1           0       -1.553101    1.025176   -0.327458
 ---------------------------------------------------------------------

 SCF Done:  E(RB2PLYPD3) =  -132.529899079     A.U. after   12 cycles
 E2(B2PLYPD3) =    -0.1813474503D+00 E(B2PLYPD3) =    -0.13271124652880D+03

 The electronic state is 1-A.
 Alpha  occ. eigenvalues --  -14.84429 -10.67112 -10.66535  -1.03604  -0.89349
 Alpha  occ. eigenvalues --   -0.59063  -0.55714  -0.53081  -0.44705  -0.38967
 Alpha  occ. eigenvalues --   -0.38682
 Alpha virt. eigenvalues --    0.03643   0.07594   0.08442   0.10185   0.11006
 Alpha virt. eigenvalues --    0.11390   0.15212   0.15919   0.16145   0.20080
 Alpha virt. eigenvalues --    0.20184   0.25060   0.32275   0.33757   0.35498

 Mulliken charges:
               1
     1  C   -0.091094
     2  C   -0.001754
     3  N   -0.211949
     4  H    0.105962
     5  H    0.102861
     6  H    0.095973
 Sum of Mulliken charges =   0.00000

 Dipole moment (field-independent basis, Debye):
    X=             -4.1375    Y=             -0.0284    Z=              0.0038  Tot=              4.1376
 Quadrupole moment (field-independent basis, Debye-Ang):
   XX=            -21.1698   YY=            -17.7535   ZZ=            -17.7199
   XY=             -0.0987   XZ=              0.0140   YZ=              0.0384

 Normal termination of Gaussian 09 at Wed Aug 26 12:59:57 2020.
