 Gaussian 09, Revision D.01,
 Gaussian 09:  ES64L-G09RevD.01 24-Apr-2013

 --------------------
 #p B2PLYPD3/Def2QZVP
 --------------------

 ------------
 cyanomethane
 ------------
 Symbolic Z-matrix:
 Charge =  0 Multiplicity = 1

                         Standard orientation:
 ---------------------------------------------------------------------
 Center     Atomic      Atomic             Coordinates (Angstroms)
 Number     Number       Type             X           Y           Z
 ---------------------------------------------------------------------
      1          6           0        1.161469    0.001476    0.004342
      2          6           0       -0.278668   -0.029944    0.014866
      3          7           0       -1.429030    0.010088   -0.004470
      4          1           0        1.625163   -0.017336    1.004231
      5          1           0        1.479216    0.973430   -0.498013
      6          1           0        1.602025   -0.855902   -0.590182
 ---------------------------------------------------------------------

 SCF Done:  E(RB2PLYPD3) =  -132.531890991     A.U. after   12 cycles
 E2(B2PLYPD3) =    -0.1807300137D+00 E(B2PLYPD3) =    -0.13271262100519D+03

 The electronic state is 1-A.
 Alpha  occ. eigenvalues --  -14.84162 -10.67970 -10.66195  -1.04343  -0.88704
 Alpha  occ. eigenvalues --   -0.59998  -0.53124  -0.52848  -0.44876  -0.39082
 Alpha  occ. eigenvalues --   -0.38905
 Alpha virt. eigenvalues --    0.03552   0.07291   0.07439   0.10153   0.11612
 Alpha virt. eigenvalues --    0.11817   0.15429   0.16235   0.16788   0.20060
 Alpha virt. eigenvalues --    0.20081   0.25696   0.32610   0.33629   0.34455

 Mulliken charges:
               1
     1  C   -0.091559
     2  C    0.002760
     3  N   -0.203278
     4  H    0.097946
     5  H    0.098071
     6  H    0.096059
 Sum of Mulliken charges =   0.00000

 Dipole moment (field-independent basis, Debye):
    X=              4.1055    Y=             -0.0032    Z=              0.0089  Tot=              4.1055
 Quadrupole moment (field-independent basis, Debye-Ang):
   XX=            -20.9780   YY=            -17.7773   ZZ=            -17.8335
   XY=             -0.0104   XZ=              0.0436   YZ=              0.0053

 Normal termination of Gaussian 09 at Wed Aug 26 13:15:45 2020.
