 Gaussian 09, Revision D.01,
 Gaussian 09:  ES64L-G09RevD.01 24-Apr-2013

 --------------------
 #p B2PLYPD3/Def2QZVP
 --------------------

 ------------
 cyanomethane
 ------------
 Symbolic Z-matrix:
 Charge =  0 Multiplicity = 1

                         Standard orientation:
 ---------------------------------------------------------------------
 Center     Atomic      Atomic             Coordinates (Angstroms)
 Number     Number       Type             X           Y           Z
 ---------------------------------------------------------------------
      1          6           0       -1.165691   -0.006858   -0.000896
      2          6           0        0.284220    0.023021   -0.010213
      3          7           0        1.426546   -0.002853    0.006210
      4          1           0       -1.527499   -0.446537    0.912962
      5          1           0       -1.489972   -0.634045   -0.795134
      6          1           0       -1.679527    1.003575   -0.094644
 ---------------------------------------------------------------------

 SCF Done:  E(RB2PLYPD3) =  -132.533423842     A.U. after   12 cycles
 E2(B2PLYPD3) =    -0.1795685972D+00 E(B2PLYPD3) =    -0.13271299243908D+03

 The electronic state is 1-A.
 Alpha  occ. eigenvalues --  -14.83917 -10.67039 -10.65956  -1.04661  -0.89254
 Alpha  occ. eigenvalues --   -0.60133  -0.54228  -0.52983  -0.44826  -0.39377
 Alpha  occ. eigenvalues --   -0.39305
 Alpha virt. eigenvalues --    0.03749   0.07521   0.08367   0.10212   0.11627
 Alpha virt. eigenvalues --    0.11736   0.15515   0.16200   0.17054   0.20019
 Alpha virt. eigenvalues --    0.20072   0.25527   0.32586   0.34666   0.34910

 Mulliken charges:
               1
     1  C   -0.079930
     2  C   -0.001041
     3  N   -0.199730
     4  H    0.093661
     5  H    0.096404
     6  H    0.090636
 Sum of Mulliken charges =   0.00000

 Dipole moment (field-independent basis, Debye):
    X=             -4.1109    Y=             -0.0349    Z=             -0.0011  Tot=              4.1110
 Quadrupole moment (field-independent basis, Debye-Ang):
   XX=            -20.8426   YY=            -17.7080   ZZ=            -17.8098
   XY=             -0.0364   XZ=             -0.0711   YZ=              0.0290

 Normal termination of Gaussian 09 at Wed Aug 26 14:52:22 2020.
