 Gaussian 09, Revision D.01,
 Gaussian 09:  ES64L-G09RevD.01 24-Apr-2013

 --------------------
 #p B2PLYPD3/Def2QZVP
 --------------------

 ------------
 cyanomethane
 ------------
 Symbolic Z-matrix:
 Charge =  0 Multiplicity = 1

                         Standard orientation:
 ---------------------------------------------------------------------
 Center     Atomic      Atomic             Coordinates (Angstroms)
 Number     Number       Type             X           Y           Z
 ---------------------------------------------------------------------
      1          6           0        1.169592    0.002396   -0.007927
      2          6           0       -0.287498    0.002478    0.021677
      3          7           0       -1.427921    0.000914   -0.014539
      4          1           0        1.612362    1.015475   -0.217264
      5          1           0        1.585409   -0.730629   -0.722483
      6          1           0        1.505111   -0.320489    0.959023
 ---------------------------------------------------------------------

 SCF Done:  E(RB2PLYPD3) =  -132.533940383     A.U. after   12 cycles
 E2(B2PLYPD3) =    -0.1795477458D+00 E(B2PLYPD3) =    -0.13271348812886D+03

 The electronic state is 1-A.
 Alpha  occ. eigenvalues --  -14.83877 -10.67383 -10.65928  -1.04708  -0.88900
 Alpha  occ. eigenvalues --   -0.59819  -0.53584  -0.53196  -0.44810  -0.39446
 Alpha  occ. eigenvalues --   -0.39328
 Alpha virt. eigenvalues --    0.03672   0.07587   0.08300   0.10179   0.11618
 Alpha virt. eigenvalues --    0.11726   0.15477   0.15928   0.17287   0.20010
 Alpha virt. eigenvalues --    0.20068   0.25430   0.32741   0.34400   0.34636

 Mulliken charges:
               1
     1  C   -0.084655
     2  C   -0.001632
     3  N   -0.198240
     4  H    0.095548
     5  H    0.094362
     6  H    0.094617
 Sum of Mulliken charges =   0.00000

 Dipole moment (field-independent basis, Debye):
    X=              4.1055    Y=             -0.0277    Z=              0.0509  Tot=              4.1059
 Quadrupole moment (field-independent basis, Debye-Ang):
   XX=            -20.8998   YY=            -17.6516   ZZ=            -17.8630
   XY=             -0.0158   XZ=             -0.0857   YZ=             -0.0100

 Normal termination of Gaussian 09 at Wed Aug 26 13:10:12 2020.
