 Gaussian 09, Revision D.01,
 Gaussian 09:  ES64L-G09RevD.01 24-Apr-2013

 --------------------
 #p B2PLYPD3/Def2QZVP
 --------------------

 ------------
 cyanomethane
 ------------
 Symbolic Z-matrix:
 Charge =  0 Multiplicity = 1

                         Standard orientation:
 ---------------------------------------------------------------------
 Center     Atomic      Atomic             Coordinates (Angstroms)
 Number     Number       Type             X           Y           Z
 ---------------------------------------------------------------------
      1          6           0       -1.170988    0.014534    0.008015
      2          6           0        0.277696    0.042115   -0.027035
      3          7           0        1.454711   -0.041071    0.019682
      4          1           0       -1.359688    0.982346   -0.332991
      5          1           0       -1.741687   -0.210455    0.967507
      6          1           0       -1.721854   -0.824288   -0.658168
 ---------------------------------------------------------------------

 SCF Done:  E(RB2PLYPD3) =  -132.509300536     A.U. after   13 cycles
 E2(B2PLYPD3) =    -0.1841392008D+00 E(B2PLYPD3) =    -0.13269343973663D+03

 The electronic state is 1-A.
 Alpha  occ. eigenvalues --  -14.85234 -10.68209 -10.67372  -1.03328  -0.88911
 Alpha  occ. eigenvalues --   -0.60754  -0.54803  -0.50011  -0.45158  -0.38538
 Alpha  occ. eigenvalues --   -0.38124
 Alpha virt. eigenvalues --    0.03090   0.05266   0.07892   0.09689   0.11105
 Alpha virt. eigenvalues --    0.11918   0.14882   0.16209   0.17658   0.19916
 Alpha virt. eigenvalues --    0.20771   0.25695   0.31541   0.33075   0.34630

 Mulliken charges:
               1
     1  C   -0.084321
     2  C    0.011154
     3  N   -0.214416
     4  H    0.105478
     5  H    0.094417
     6  H    0.087689
 Sum of Mulliken charges =   0.00000

 Dipole moment (field-independent basis, Debye):
    X=             -4.1562    Y=              0.0574    Z=              0.0008  Tot=              4.1565
 Quadrupole moment (field-independent basis, Debye-Ang):
   XX=            -20.6774   YY=            -17.8036   ZZ=            -18.2923
   XY=              0.5336   XZ=             -0.2711   YZ=             -0.1259

 Normal termination of Gaussian 09 at Wed Aug 26 23:13:40 2020.
