 Gaussian 09, Revision D.01,
 Gaussian 09:  ES64L-G09RevD.01 24-Apr-2013

 --------------------
 #p B2PLYPD3/Def2QZVP
 --------------------

 ------------
 cyanomethane
 ------------
 Symbolic Z-matrix:
 Charge =  0 Multiplicity = 1

                         Standard orientation:
 ---------------------------------------------------------------------
 Center     Atomic      Atomic             Coordinates (Angstroms)
 Number     Number       Type             X           Y           Z
 ---------------------------------------------------------------------
      1          6           0        1.157034    0.028010   -0.005087
      2          6           0       -0.277932   -0.051814   -0.044891
      3          7           0       -1.426572    0.026765    0.031291
      4          1           0        1.596973    1.008732   -0.079995
      5          1           0        1.467578   -0.613979   -0.757752
      6          1           0        1.646841   -0.439284    0.918570
 ---------------------------------------------------------------------

 SCF Done:  E(RB2PLYPD3) =  -132.525955921     A.U. after   12 cycles
 E2(B2PLYPD3) =    -0.1808071636D+00 E(B2PLYPD3) =    -0.13270676308484D+03

 The electronic state is 1-A.
 Alpha  occ. eigenvalues --  -14.84329 -10.66711 -10.66276  -1.04334  -0.89678
 Alpha  occ. eigenvalues --   -0.60781  -0.55267  -0.51944  -0.44990  -0.39241
 Alpha  occ. eigenvalues --   -0.38777
 Alpha virt. eigenvalues --    0.03520   0.06879   0.08480   0.09887   0.11374
 Alpha virt. eigenvalues --    0.11873   0.15412   0.15865   0.17913   0.19936
 Alpha virt. eigenvalues --    0.20376   0.26119   0.32861   0.34136   0.35297

 Mulliken charges:
               1
     1  C   -0.075075
     2  C    0.005708
     3  N   -0.204808
     4  H    0.098291
     5  H    0.094031
     6  H    0.081853
 Sum of Mulliken charges =   0.00000

 Dipole moment (field-independent basis, Debye):
    X=              4.1053    Y=             -0.0715    Z=             -0.0625  Tot=              4.1064
 Quadrupole moment (field-independent basis, Debye-Ang):
   XX=            -20.7281   YY=            -17.6312   ZZ=            -17.9975
   XY=              0.1056   XZ=              0.2668   YZ=              0.0662

 Normal termination of Gaussian 09 at Wed Aug 26 21:55:12 2020.
