 Gaussian 09, Revision D.01,
 Gaussian 09:  ES64L-G09RevD.01 24-Apr-2013

 --------------------
 #p B2PLYPD3/Def2QZVP
 --------------------

 ------------
 cyanomethane
 ------------
 Symbolic Z-matrix:
 Charge =  0 Multiplicity = 1

                         Standard orientation:
 ---------------------------------------------------------------------
 Center     Atomic      Atomic             Coordinates (Angstroms)
 Number     Number       Type             X           Y           Z
 ---------------------------------------------------------------------
      1          6           0        1.163247    0.019344    0.010043
      2          6           0       -0.285036   -0.001575    0.047010
      3          7           0       -1.448030    0.003203   -0.028542
      4          1           0        1.598692   -0.709122   -0.756593
      5          1           0        1.570050   -0.338051    0.875982
      6          1           0        1.698198    0.918142   -0.261911
 ---------------------------------------------------------------------

 SCF Done:  E(RB2PLYPD3) =  -132.524004346     A.U. after   12 cycles
 E2(B2PLYPD3) =    -0.1818048784D+00 E(B2PLYPD3) =    -0.13270580922469D+03

 The electronic state is 1-A.
 Alpha  occ. eigenvalues --  -14.84865 -10.66981 -10.66729  -1.03947  -0.89495
 Alpha  occ. eigenvalues --   -0.61983  -0.54612  -0.51503  -0.45206  -0.39188
 Alpha  occ. eigenvalues --   -0.38676
 Alpha virt. eigenvalues --    0.03506   0.06738   0.07972   0.10000   0.11218
 Alpha virt. eigenvalues --    0.11822   0.15597   0.16349   0.17874   0.20035
 Alpha virt. eigenvalues --    0.20436   0.25606   0.32655   0.33625   0.35626

 Mulliken charges:
               1
     1  C   -0.054498
     2  C    0.011979
     3  N   -0.209217
     4  H    0.075079
     5  H    0.088570
     6  H    0.088087
 Sum of Mulliken charges =   0.00000

 Dipole moment (field-independent basis, Debye):
    X=              4.1680    Y=             -0.0340    Z=              0.0420  Tot=              4.1683
 Quadrupole moment (field-independent basis, Debye-Ang):
   XX=            -20.3734   YY=            -17.9772   ZZ=            -17.9884
   XY=              0.0045   XZ=             -0.2096   YZ=             -0.1115

 Normal termination of Gaussian 09 at Wed Aug 26 23:01:03 2020.
