 Gaussian 09, Revision D.01,
 Gaussian 09:  ES64L-G09RevD.01 24-Apr-2013

 --------------------
 #p B2PLYPD3/Def2QZVP
 --------------------

 ------------
 cyanomethane
 ------------
 Symbolic Z-matrix:
 Charge =  0 Multiplicity = 1

                         Standard orientation:
 ---------------------------------------------------------------------
 Center     Atomic      Atomic             Coordinates (Angstroms)
 Number     Number       Type             X           Y           Z
 ---------------------------------------------------------------------
      1          6           0       -1.183183    0.000241   -0.019939
      2          6           0        0.256256    0.019889    0.034064
      3          7           0        1.433382   -0.008788   -0.016303
      4          1           0       -1.507913    1.106924    0.003940
      5          1           0       -1.475174   -0.580265    0.972588
      6          1           0       -1.489030   -0.585925   -0.947150
 ---------------------------------------------------------------------

 SCF Done:  E(RB2PLYPD3) =  -132.518283303     A.U. after   12 cycles
 E2(B2PLYPD3) =    -0.1836854766D+00 E(B2PLYPD3) =    -0.13270196877995D+03

 The electronic state is 1-A.
 Alpha  occ. eigenvalues --  -14.84557 -10.69200 -10.66655  -1.03051  -0.88542
 Alpha  occ. eigenvalues --   -0.57788  -0.53959  -0.52754  -0.44587  -0.38168
 Alpha  occ. eigenvalues --   -0.37898
 Alpha virt. eigenvalues --    0.03198   0.06717   0.07005   0.10011   0.11260
 Alpha virt. eigenvalues --    0.11514   0.14951   0.15089   0.15884   0.20193
 Alpha virt. eigenvalues --    0.20268   0.25496   0.31461   0.32519   0.33744

 Mulliken charges:
               1
     1  C   -0.131967
     2  C    0.008342
     3  N   -0.219269
     4  H    0.115493
     5  H    0.109341
     6  H    0.118060
 Sum of Mulliken charges =   0.00000

 Dipole moment (field-independent basis, Debye):
    X=             -4.0825    Y=              0.0016    Z=              0.0156  Tot=              4.0825
 Quadrupole moment (field-independent basis, Debye-Ang):
   XX=            -21.8413   YY=            -17.6441   ZZ=            -17.7620
   XY=              0.0367   XZ=              0.0989   YZ=              0.0496

 Normal termination of Gaussian 09 at Wed Aug 26 22:59:20 2020.
