 Gaussian 09, Revision D.01,
 Gaussian 09:  ES64L-G09RevD.01 24-Apr-2013

 --------------------
 #p B2PLYPD3/Def2QZVP
 --------------------

 ------------
 cyanomethane
 ------------
 Symbolic Z-matrix:
 Charge =  0 Multiplicity = 1

                         Standard orientation:
 ---------------------------------------------------------------------
 Center     Atomic      Atomic             Coordinates (Angstroms)
 Number     Number       Type             X           Y           Z
 ---------------------------------------------------------------------
      1          6           0        1.171709    0.008447    0.001165
      2          6           0       -0.282005   -0.021104   -0.006405
      3          7           0       -1.431334    0.010889    0.004342
      4          1           0        1.573004   -0.219785    0.991451
      5          1           0        1.564830    0.973308   -0.306793
      6          1           0        1.543277   -0.753804   -0.683612
 ---------------------------------------------------------------------

 SCF Done:  E(RB2PLYPD3) =  -132.535784169     A.U. after   11 cycles
 E2(B2PLYPD3) =    -0.1800906351D+00 E(B2PLYPD3) =    -0.13271587480415D+03

 The electronic state is 1-A.
 Alpha  occ. eigenvalues --  -14.84103 -10.67054 -10.66146  -1.04343  -0.89206
 Alpha  occ. eigenvalues --   -0.60017  -0.53893  -0.53599  -0.44826  -0.39219
 Alpha  occ. eigenvalues --   -0.39147
 Alpha virt. eigenvalues --    0.03760   0.07810   0.08040   0.10162   0.11526
 Alpha virt. eigenvalues --    0.11568   0.15484   0.16168   0.16823   0.20047
 Alpha virt. eigenvalues --    0.20090   0.25465   0.32857   0.34518   0.34834

 Mulliken charges:
               1
     1  C   -0.079786
     2  C   -0.000992
     3  N   -0.203388
     4  H    0.093971
     5  H    0.096264
     6  H    0.093931
 Sum of Mulliken charges =   0.00000

 Dipole moment (field-independent basis, Debye):
    X=              4.1211    Y=             -0.0211    Z=             -0.0067  Tot=              4.1211
 Quadrupole moment (field-independent basis, Debye-Ang):
   XX=            -20.9100   YY=            -17.7362   ZZ=            -17.7839
   XY=              0.0599   XZ=              0.0433   YZ=             -0.0057

 Normal termination of Gaussian 09 at Thu Aug 27 00:10:28 2020.
