 Gaussian 09, Revision D.01,
 Gaussian 09:  ES64L-G09RevD.01 24-Apr-2013

 --------------------
 #p B2PLYPD3/Def2QZVP
 --------------------

 ------------
 cyanomethane
 ------------
 Symbolic Z-matrix:
 Charge =  0 Multiplicity = 1

                         Standard orientation:
 ---------------------------------------------------------------------
 Center     Atomic      Atomic             Coordinates (Angstroms)
 Number     Number       Type             X           Y           Z
 ---------------------------------------------------------------------
      1          6           0       -1.190404   -0.009492    0.010840
      2          6           0        0.288786    0.040207   -0.005408
      3          7           0        1.432142   -0.019817    0.001088
      4          1           0       -1.528699   -0.164571    1.013115
      5          1           0       -1.539586   -0.849172   -0.654030
      6          1           0       -1.547000    0.968171   -0.399291
 ---------------------------------------------------------------------

 SCF Done:  E(RB2PLYPD3) =  -132.533406722     A.U. after   12 cycles
 E2(B2PLYPD3) =    -0.1798801674D+00 E(B2PLYPD3) =    -0.13271328688904D+03

 The electronic state is 1-A.
 Alpha  occ. eigenvalues --  -14.83871 -10.67810 -10.65966  -1.04408  -0.88520
 Alpha  occ. eigenvalues --   -0.58659  -0.54201  -0.53125  -0.44645  -0.39384
 Alpha  occ. eigenvalues --   -0.39212
 Alpha virt. eigenvalues --    0.03619   0.07866   0.08320   0.10186   0.11397
 Alpha virt. eigenvalues --    0.11554   0.15198   0.15841   0.16511   0.19996
 Alpha virt. eigenvalues --    0.20061   0.25035   0.32429   0.33870   0.34771

 Mulliken charges:
               1
     1  C   -0.100714
     2  C   -0.004336
     3  N   -0.200799
     4  H    0.105245
     5  H    0.100877
     6  H    0.099727
 Sum of Mulliken charges =   0.00000

 Dipole moment (field-independent basis, Debye):
    X=             -4.0967    Y=              0.0249    Z=              0.0050  Tot=              4.0968
 Quadrupole moment (field-independent basis, Debye-Ang):
   XX=            -21.2151   YY=            -17.6946   ZZ=            -17.7053
   XY=              0.1173   XZ=             -0.0083   YZ=             -0.0172

 Normal termination of Gaussian 09 at Wed Aug 26 12:57:57 2020.
