 Gaussian 09, Revision D.01,
 Gaussian 09:  ES64L-G09RevD.01 24-Apr-2013

 --------------------
 #p B2PLYPD3/Def2QZVP
 --------------------

 ------------
 cyanomethane
 ------------
 Symbolic Z-matrix:
 Charge =  0 Multiplicity = 1

                         Standard orientation:
 ---------------------------------------------------------------------
 Center     Atomic      Atomic             Coordinates (Angstroms)
 Number     Number       Type             X           Y           Z
 ---------------------------------------------------------------------
      1          6           0       -1.172494    0.007895    0.001063
      2          6           0        0.272361   -0.022313   -0.006504
      3          7           0        1.432284    0.011090    0.001679
      4          1           0       -1.518854   -0.183619    0.977562
      5          1           0       -1.553703   -0.762650   -0.635820
      6          1           0       -1.552639    0.955149   -0.320852
 ---------------------------------------------------------------------

 SCF Done:  E(RB2PLYPD3) =  -132.534205797     A.U. after   11 cycles
 E2(B2PLYPD3) =    -0.1806695993D+00 E(B2PLYPD3) =    -0.13271487539589D+03

 The electronic state is 1-A.
 Alpha  occ. eigenvalues --  -14.84329 -10.66357 -10.66233  -1.03913  -0.90023
 Alpha  occ. eigenvalues --   -0.60315  -0.54629  -0.54443  -0.44818  -0.38948
 Alpha  occ. eigenvalues --   -0.38891
 Alpha virt. eigenvalues --    0.03872   0.07901   0.08171   0.10150   0.11379
 Alpha virt. eigenvalues --    0.11419   0.15554   0.16056   0.16641   0.20119
 Alpha virt. eigenvalues --    0.20152   0.25602   0.32978   0.34927   0.35085

 Mulliken charges:
               1
     1  C   -0.072073
     2  C   -0.000310
     3  N   -0.210017
     4  H    0.094193
     5  H    0.092815
     6  H    0.095392
 Sum of Mulliken charges =   0.00000

 Dipole moment (field-independent basis, Debye):
    X=             -4.1425    Y=             -0.0228    Z=              0.0093  Tot=              4.1426
 Quadrupole moment (field-independent basis, Debye-Ang):
   XX=            -20.9075   YY=            -17.6959   ZZ=            -17.7765
   XY=             -0.0448   XZ=             -0.0086   YZ=             -0.0100

 Normal termination of Gaussian 09 at Wed Aug 26 11:04:39 2020.
