 Gaussian 09, Revision D.01,
 Gaussian 09:  ES64L-G09RevD.01 24-Apr-2013

 --------------------
 #p B2PLYPD3/Def2QZVP
 --------------------

 ------------
 cyanomethane
 ------------
 Symbolic Z-matrix:
 Charge =  0 Multiplicity = 1

                         Standard orientation:
 ---------------------------------------------------------------------
 Center     Atomic      Atomic             Coordinates (Angstroms)
 Number     Number       Type             X           Y           Z
 ---------------------------------------------------------------------
      1          6           0       -1.179387    0.007829    0.002257
      2          6           0        0.280116    0.008041    0.011655
      3          7           0        1.439590   -0.009402   -0.003979
      4          1           0       -1.495058    0.982685   -0.247439
      5          1           0       -1.609779   -0.304378    0.937119
      6          1           0       -1.576665   -0.707713   -0.745306
 ---------------------------------------------------------------------

 SCF Done:  E(RB2PLYPD3) =  -132.533612106     A.U. after   12 cycles
 E2(B2PLYPD3) =    -0.1808352549D+00 E(B2PLYPD3) =    -0.13271444736142D+03

 The electronic state is 1-A.
 Alpha  occ. eigenvalues --  -14.84389 -10.66853 -10.66474  -1.03937  -0.89419
 Alpha  occ. eigenvalues --   -0.60126  -0.54914  -0.53056  -0.44850  -0.39087
 Alpha  occ. eigenvalues --   -0.38895
 Alpha virt. eigenvalues --    0.03768   0.07566   0.08214   0.10187   0.11227
 Alpha virt. eigenvalues --    0.11540   0.15380   0.16249   0.16655   0.20057
 Alpha virt. eigenvalues --    0.20168   0.25308   0.32667   0.34360   0.35254

 Mulliken charges:
               1
     1  C   -0.075955
     2  C    0.000243
     3  N   -0.208505
     4  H    0.099288
     5  H    0.093587
     6  H    0.091343
 Sum of Mulliken charges =   0.00000

 Dipole moment (field-independent basis, Debye):
    X=             -4.1470    Y=              0.0088    Z=              0.0056  Tot=              4.1470
 Quadrupole moment (field-independent basis, Debye-Ang):
   XX=            -20.8819   YY=            -17.7134   ZZ=            -17.8685
   XY=              0.1445   XZ=             -0.0173   YZ=             -0.0473

 Normal termination of Gaussian 09 at Wed Aug 26 23:59:07 2020.
