 Gaussian 09, Revision D.01,
 Gaussian 09:  ES64L-G09RevD.01 24-Apr-2013

 --------------------
 #p B2PLYPD3/Def2QZVP
 --------------------

 ------------
 cyanomethane
 ------------
 Symbolic Z-matrix:
 Charge =  0 Multiplicity = 1

                         Standard orientation:
 ---------------------------------------------------------------------
 Center     Atomic      Atomic             Coordinates (Angstroms)
 Number     Number       Type             X           Y           Z
 ---------------------------------------------------------------------
      1          6           0        1.184715   -0.010484   -0.003938
      2          6           0       -0.274484    0.031643    0.011557
      3          7           0       -1.439350   -0.011135   -0.000829
      4          1           0        1.596187   -0.162445    0.979104
      5          1           0        1.565723    0.959973   -0.390860
      6          1           0        1.452155   -0.846543   -0.628154
 ---------------------------------------------------------------------

 SCF Done:  E(RB2PLYPD3) =  -132.533185122     A.U. after   12 cycles
 E2(B2PLYPD3) =    -0.1814480184D+00 E(B2PLYPD3) =    -0.13271463314040D+03

 The electronic state is 1-A.
 Alpha  occ. eigenvalues --  -14.84454 -10.67197 -10.66548  -1.03641  -0.89301
 Alpha  occ. eigenvalues --   -0.59538  -0.54626  -0.53551  -0.44762  -0.38784
 Alpha  occ. eigenvalues --   -0.38747
 Alpha virt. eigenvalues --    0.03732   0.07645   0.07898   0.10173   0.11262
 Alpha virt. eigenvalues --    0.11377   0.15237   0.16013   0.16306   0.20101
 Alpha virt. eigenvalues --    0.20175   0.25341   0.32465   0.34404   0.34736

 Mulliken charges:
               1
     1  C   -0.088791
     2  C    0.000264
     3  N   -0.212119
     4  H    0.097303
     5  H    0.098756
     6  H    0.104587
 Sum of Mulliken charges =   0.00000

 Dipole moment (field-independent basis, Debye):
    X=              4.1396    Y=              0.0005    Z=              0.0143  Tot=              4.1396
 Quadrupole moment (field-independent basis, Debye-Ang):
   XX=            -21.1057   YY=            -17.6533   ZZ=            -17.8710
   XY=             -0.0105   XZ=              0.1171   YZ=              0.0274

 Normal termination of Gaussian 09 at Wed Aug 26 12:07:20 2020.
