 Gaussian 09, Revision D.01,
 Gaussian 09:  ES64L-G09RevD.01 24-Apr-2013

 --------------------
 #p B2PLYPD3/Def2QZVP
 --------------------

 ------------
 cyanomethane
 ------------
 Symbolic Z-matrix:
 Charge =  0 Multiplicity = 1

                         Standard orientation:
 ---------------------------------------------------------------------
 Center     Atomic      Atomic             Coordinates (Angstroms)
 Number     Number       Type             X           Y           Z
 ---------------------------------------------------------------------
      1          6           0        1.212511   -0.026373   -0.010784
      2          6           0       -0.304854    0.063976   -0.045502
      3          7           0       -1.424570   -0.024388    0.027162
      4          1           0        1.423703   -0.898495   -0.639529
      5          1           0        1.521020   -0.180430    1.129343
      6          1           0        1.581321    1.024025   -0.342227
 ---------------------------------------------------------------------

 SCF Done:  E(RB2PLYPD3) =  -132.518997149     A.U. after   12 cycles
 E2(B2PLYPD3) =    -0.1791974938D+00 E(B2PLYPD3) =    -0.13269819464324D+03

 The electronic state is 1-A.
 Alpha  occ. eigenvalues --  -14.83169 -10.69519 -10.65304  -1.05020  -0.86984
 Alpha  occ. eigenvalues --   -0.56304  -0.54569  -0.51438  -0.44318  -0.39885
 Alpha  occ. eigenvalues --   -0.39459
 Alpha virt. eigenvalues --    0.03145   0.07570   0.08651   0.10223   0.11418
 Alpha virt. eigenvalues --    0.11720   0.14694   0.15528   0.16181   0.19842
 Alpha virt. eigenvalues --    0.19995   0.24559   0.31615   0.32244   0.34677

 Mulliken charges:
               1
     1  C   -0.132857
     2  C   -0.011147
     3  N   -0.188224
     4  H    0.120566
     5  H    0.104615
     6  H    0.107047
 Sum of Mulliken charges =   0.00000

 Dipole moment (field-independent basis, Debye):
    X=              4.0309    Y=              0.0377    Z=             -0.0287  Tot=              4.0312
 Quadrupole moment (field-independent basis, Debye-Ang):
   XX=            -21.6933   YY=            -17.4776   ZZ=            -17.7246
   XY=             -0.0178   XZ=              0.2471   YZ=              0.1201

 Normal termination of Gaussian 09 at Wed Aug 26 23:44:22 2020.
