 Gaussian 09, Revision D.01,
 Gaussian 09:  ES64L-G09RevD.01 24-Apr-2013

 --------------------
 #p B2PLYPD3/Def2QZVP
 --------------------

 ------------
 cyanomethane
 ------------
 Symbolic Z-matrix:
 Charge =  0 Multiplicity = 1

                         Standard orientation:
 ---------------------------------------------------------------------
 Center     Atomic      Atomic             Coordinates (Angstroms)
 Number     Number       Type             X           Y           Z
 ---------------------------------------------------------------------
      1          6           0        1.156381   -0.022685    0.003786
      2          6           0       -0.269238   -0.007992   -0.016672
      3          7           0       -1.430501    0.009037    0.000303
      4          1           0        1.623404    1.055064   -0.244944
      5          1           0        1.622621   -0.719984   -0.646092
      6          1           0        1.444623   -0.214284    0.966229
 ---------------------------------------------------------------------

 SCF Done:  E(RB2PLYPD3) =  -132.523562355     A.U. after   12 cycles
 E2(B2PLYPD3) =    -0.1813076308D+00 E(B2PLYPD3) =    -0.13270486998588D+03

 The electronic state is 1-A.
 Alpha  occ. eigenvalues --  -14.84451 -10.66890 -10.66439  -1.04001  -0.89909
 Alpha  occ. eigenvalues --   -0.60956  -0.55358  -0.52032  -0.44950  -0.38988
 Alpha  occ. eigenvalues --   -0.38533
 Alpha virt. eigenvalues --    0.03494   0.06802   0.08133   0.10124   0.11369
 Alpha virt. eigenvalues --    0.11831   0.15633   0.15983   0.17111   0.20105
 Alpha virt. eigenvalues --    0.20206   0.25900   0.31694   0.33957   0.35603

 Mulliken charges:
               1
     1  C   -0.077895
     2  C    0.004733
     3  N   -0.209570
     4  H    0.085256
     5  H    0.097077
     6  H    0.100400
 Sum of Mulliken charges =   0.00000

 Dipole moment (field-independent basis, Debye):
    X=              4.1276    Y=             -0.0483    Z=              0.0477  Tot=              4.1282
 Quadrupole moment (field-independent basis, Debye-Ang):
   XX=            -20.8470   YY=            -17.7609   ZZ=            -17.8605
   XY=              0.0204   XZ=             -0.0283   YZ=              0.0519

 Normal termination of Gaussian 09 at Wed Aug 26 23:51:11 2020.
