 Gaussian 09, Revision D.01,
 Gaussian 09:  ES64L-G09RevD.01 24-Apr-2013

 --------------------
 #p B2PLYPD3/Def2QZVP
 --------------------

 ------------
 cyanomethane
 ------------
 Symbolic Z-matrix:
 Charge =  0 Multiplicity = 1

                         Standard orientation:
 ---------------------------------------------------------------------
 Center     Atomic      Atomic             Coordinates (Angstroms)
 Number     Number       Type             X           Y           Z
 ---------------------------------------------------------------------
      1          6           0       -1.173050    0.011780   -0.003890
      2          6           0        0.280546    0.017456   -0.006170
      3          7           0        1.444072   -0.017913    0.006975
      4          1           0       -1.473362    0.944448   -0.332920
      5          1           0       -1.648156   -0.195655    0.980455
      6          1           0       -1.631961   -0.798820   -0.636003
 ---------------------------------------------------------------------

 SCF Done:  E(RB2PLYPD3) =  -132.528742996     A.U. after   12 cycles
 E2(B2PLYPD3) =    -0.1815223186D+00 E(B2PLYPD3) =    -0.13271026531494D+03

 The electronic state is 1-A.
 Alpha  occ. eigenvalues --  -14.84627 -10.67105 -10.66711  -1.03851  -0.89308
 Alpha  occ. eigenvalues --   -0.60571  -0.55125  -0.51895  -0.44984  -0.39042
 Alpha  occ. eigenvalues --   -0.38713
 Alpha virt. eigenvalues --    0.03639   0.06849   0.08173   0.10122   0.11133
 Alpha virt. eigenvalues --    0.11718   0.15379   0.16342   0.17009   0.20000
 Alpha virt. eigenvalues --    0.20281   0.25442   0.32490   0.34023   0.35241

 Mulliken charges:
               1
     1  C   -0.071789
     2  C    0.003378
     3  N   -0.209465
     4  H    0.100457
     5  H    0.088279
     6  H    0.089140
 Sum of Mulliken charges =   0.00000

 Dipole moment (field-independent basis, Debye):
    X=             -4.1544    Y=              0.0233    Z=             -0.0008  Tot=              4.1545
 Quadrupole moment (field-independent basis, Debye-Ang):
   XX=            -20.7387   YY=            -17.7344   ZZ=            -18.0151
   XY=              0.2397   XZ=             -0.1183   YZ=             -0.0654

 Normal termination of Gaussian 09 at Wed Aug 26 13:26:33 2020.
