 Gaussian 09, Revision D.01,
 Gaussian 09:  ES64L-G09RevD.01 24-Apr-2013

 --------------------
 #p B2PLYPD3/Def2QZVP
 --------------------

 ------------
 cyanomethane
 ------------
 Symbolic Z-matrix:
 Charge =  0 Multiplicity = 1

                         Standard orientation:
 ---------------------------------------------------------------------
 Center     Atomic      Atomic             Coordinates (Angstroms)
 Number     Number       Type             X           Y           Z
 ---------------------------------------------------------------------
      1          6           0        1.176529    0.001453   -0.000721
      2          6           0       -0.280113   -0.007283   -0.014178
      3          7           0       -1.437111    0.004913    0.004232
      4          1           0        1.587497    1.019395   -0.224257
      5          1           0        1.581945   -0.728769   -0.707107
      6          1           0        1.511836   -0.290039    0.991142
 ---------------------------------------------------------------------

 SCF Done:  E(RB2PLYPD3) =  -132.534478670     A.U. after   12 cycles
 E2(B2PLYPD3) =    -0.1808569596D+00 E(B2PLYPD3) =    -0.13271533562992D+03

 The electronic state is 1-A.
 Alpha  occ. eigenvalues --  -14.84303 -10.67451 -10.66382  -1.04031  -0.88988
 Alpha  occ. eigenvalues --   -0.59753  -0.53695  -0.53490  -0.44831  -0.39027
 Alpha  occ. eigenvalues --   -0.38943
 Alpha virt. eigenvalues --    0.03686   0.07536   0.07868   0.10173   0.11404
 Alpha virt. eigenvalues --    0.11538   0.15387   0.16082   0.16689   0.20076
 Alpha virt. eigenvalues --    0.20121   0.25365   0.32552   0.34360   0.34604

 Mulliken charges:
               1
     1  C   -0.085402
     2  C    0.000129
     3  N   -0.206831
     4  H    0.097386
     5  H    0.097146
     6  H    0.097572
 Sum of Mulliken charges =   0.00000

 Dipole moment (field-independent basis, Debye):
    X=              4.1309    Y=             -0.0224    Z=              0.0141  Tot=              4.1310
 Quadrupole moment (field-independent basis, Debye-Ang):
   XX=            -20.9886   YY=            -17.7152   ZZ=            -17.8578
   XY=              0.0115   XZ=              0.0142   YZ=              0.0051

 Normal termination of Gaussian 09 at Wed Aug 26 13:22:28 2020.
