 Gaussian 09, Revision D.01,
 Gaussian 09:  ES64L-G09RevD.01 24-Apr-2013

 --------------------
 #p B2PLYPD3/Def2QZVP
 --------------------

 ------------
 cyanomethane
 ------------
 Symbolic Z-matrix:
 Charge =  0 Multiplicity = 1

                         Standard orientation:
 ---------------------------------------------------------------------
 Center     Atomic      Atomic             Coordinates (Angstroms)
 Number     Number       Type             X           Y           Z
 ---------------------------------------------------------------------
      1          6           0        1.176545    0.001888   -0.009213
      2          6           0       -0.251505   -0.045081   -0.017344
      3          7           0       -1.429623    0.035181    0.009535
      4          1           0        1.365232   -0.730159   -0.624766
      5          1           0        1.446363   -0.225202    0.970041
      6          1           0        1.645528    0.968249   -0.252682
 ---------------------------------------------------------------------

 SCF Done:  E(RB2PLYPD3) =  -132.513251348     A.U. after   13 cycles
 E2(B2PLYPD3) =    -0.1825569668D+00 E(B2PLYPD3) =    -0.13269580831479D+03

 The electronic state is 1-A.
 Alpha  occ. eigenvalues --  -14.84713 -10.66728 -10.65375  -1.03172  -0.91501
 Alpha  occ. eigenvalues --   -0.60041  -0.57411  -0.54144  -0.44729  -0.38347
 Alpha  occ. eigenvalues --   -0.38173
 Alpha virt. eigenvalues --    0.03715   0.07132   0.09055   0.09930   0.10985
 Alpha virt. eigenvalues --    0.11440   0.14791   0.15671   0.17003   0.20220
 Alpha virt. eigenvalues --    0.20413   0.25912   0.32939   0.34528   0.35784

 Mulliken charges:
               1
     1  C   -0.088888
     2  C    0.002342
     3  N   -0.222357
     4  H    0.110880
     5  H    0.099157
     6  H    0.098867
 Sum of Mulliken charges =   0.00000

 Dipole moment (field-independent basis, Debye):
    X=              4.1452    Y=             -0.0605    Z=              0.0216  Tot=              4.1457
 Quadrupole moment (field-independent basis, Debye-Ang):
   XX=            -21.1142   YY=            -17.6143   ZZ=            -17.7564
   XY=              0.3431   XZ=              0.1211   YZ=              0.0837

 Normal termination of Gaussian 09 at Wed Aug 26 16:33:26 2020.
