 Gaussian 09, Revision D.01,
 Gaussian 09:  ES64L-G09RevD.01 24-Apr-2013

 --------------------
 #p B2PLYPD3/Def2QZVP
 --------------------

 ------------
 cyanomethane
 ------------
 Symbolic Z-matrix:
 Charge =  0 Multiplicity = 1

                         Standard orientation:
 ---------------------------------------------------------------------
 Center     Atomic      Atomic             Coordinates (Angstroms)
 Number     Number       Type             X           Y           Z
 ---------------------------------------------------------------------
      1          6           0        1.179473   -0.004170   -0.011994
      2          6           0       -0.286744    0.032239    0.018141
      3          7           0       -1.441778   -0.019544   -0.011667
      4          1           0        1.547181    1.001274   -0.163061
      5          1           0        1.641521   -0.671011   -0.753948
      6          1           0        1.547368   -0.361870    0.961794
 ---------------------------------------------------------------------

 SCF Done:  E(RB2PLYPD3) =  -132.533302670     A.U. after   12 cycles
 E2(B2PLYPD3) =    -0.1808467068D+00 E(B2PLYPD3) =    -0.13271414937642D+03

 The electronic state is 1-A.
 Alpha  occ. eigenvalues --  -14.84397 -10.67331 -10.66504  -1.04100  -0.88883
 Alpha  occ. eigenvalues --   -0.60109  -0.53969  -0.52842  -0.44913  -0.39168
 Alpha  occ. eigenvalues --   -0.39027
 Alpha virt. eigenvalues --    0.03661   0.07361   0.08102   0.10106   0.11305
 Alpha virt. eigenvalues --    0.11576   0.15403   0.15940   0.17232   0.20033
 Alpha virt. eigenvalues --    0.20181   0.25309   0.32623   0.34287   0.34862

 Mulliken charges:
               1
     1  C   -0.078337
     2  C    0.002120
     3  N   -0.205763
     4  H    0.095566
     5  H    0.094624
     6  H    0.091789
 Sum of Mulliken charges =   0.00000

 Dipole moment (field-independent basis, Debye):
    X=              4.1360    Y=              0.0235    Z=              0.0317  Tot=              4.1362
 Quadrupole moment (field-independent basis, Debye-Ang):
   XX=            -20.8304   YY=            -17.7615   ZZ=            -17.9058
   XY=             -0.1714   XZ=             -0.0831   YZ=             -0.0069

 Normal termination of Gaussian 09 at Wed Aug 26 16:14:37 2020.
