 Gaussian 09, Revision D.01,
 Gaussian 09:  ES64L-G09RevD.01 24-Apr-2013

 --------------------
 #p B2PLYPD3/Def2QZVP
 --------------------

 ------------
 cyanomethane
 ------------
 Symbolic Z-matrix:
 Charge =  0 Multiplicity = 1

                         Standard orientation:
 ---------------------------------------------------------------------
 Center     Atomic      Atomic             Coordinates (Angstroms)
 Number     Number       Type             X           Y           Z
 ---------------------------------------------------------------------
      1          6           0       -1.177708    0.001475   -0.006838
      2          6           0        0.279329   -0.020897    0.016429
      3          7           0        1.425122    0.007040   -0.011051
      4          1           0       -1.506419    0.908349   -0.505298
      5          1           0       -1.485648    0.030293    1.019456
      6          1           0       -1.593514   -0.871392   -0.494347
 ---------------------------------------------------------------------

 SCF Done:  E(RB2PLYPD3) =  -132.535581915     A.U. after   12 cycles
 E2(B2PLYPD3) =    -0.1796525401D+00 E(B2PLYPD3) =    -0.13271523445544D+03

 The electronic state is 1-A.
 Alpha  occ. eigenvalues --  -14.83865 -10.66820 -10.65904  -1.04391  -0.89480
 Alpha  occ. eigenvalues --   -0.59380  -0.54372  -0.54244  -0.44672  -0.39273
 Alpha  occ. eigenvalues --   -0.39165
 Alpha virt. eigenvalues --    0.03807   0.08060   0.08464   0.10200   0.11474
 Alpha virt. eigenvalues --    0.11585   0.15419   0.15792   0.16698   0.20059
 Alpha virt. eigenvalues --    0.20086   0.25386   0.32917   0.34536   0.34975

 Mulliken charges:
               1
     1  C   -0.088538
     2  C   -0.004136
     3  N   -0.203148
     4  H    0.099402
     5  H    0.098156
     6  H    0.098264
 Sum of Mulliken charges =   0.00000

 Dipole moment (field-independent basis, Debye):
    X=             -4.1083    Y=             -0.0024    Z=              0.0298  Tot=              4.1084
 Quadrupole moment (field-independent basis, Debye-Ang):
   XX=            -21.0872   YY=            -17.6468   ZZ=            -17.7036
   XY=              0.0077   XZ=              0.0854   YZ=              0.0058

 Normal termination of Gaussian 09 at Wed Aug 26 14:48:04 2020.
