 Gaussian 09, Revision D.01,
 Gaussian 09:  ES64L-G09RevD.01 24-Apr-2013

 --------------------
 #p B2PLYPD3/Def2QZVP
 --------------------

 ------------
 cyanomethane
 ------------
 Symbolic Z-matrix:
 Charge =  0 Multiplicity = 1

                         Standard orientation:
 ---------------------------------------------------------------------
 Center     Atomic      Atomic             Coordinates (Angstroms)
 Number     Number       Type             X           Y           Z
 ---------------------------------------------------------------------
      1          6           0       -1.179652    0.017691    0.018469
      2          6           0        0.264302    0.022274    0.070808
      3          7           0        1.421204   -0.021307   -0.048037
      4          1           0       -1.365242   -0.157068    0.936697
      5          1           0       -1.650478   -0.872570   -0.659831
      6          1           0       -1.440611    0.938997   -0.476265
 ---------------------------------------------------------------------

 SCF Done:  E(RB2PLYPD3) =  -132.501679635     A.U. after   13 cycles
 E2(B2PLYPD3) =    -0.1817785899D+00 E(B2PLYPD3) =    -0.13268345822456D+03

 The electronic state is 1-A.
 Alpha  occ. eigenvalues --  -14.84322 -10.66698 -10.66235  -1.03811  -0.90607
 Alpha  occ. eigenvalues --   -0.58677  -0.58380  -0.51446  -0.44677  -0.38967
 Alpha  occ. eigenvalues --   -0.38268
 Alpha virt. eigenvalues --    0.03010   0.06678   0.09565   0.10009   0.10775
 Alpha virt. eigenvalues --    0.11726   0.15001   0.15457   0.16745   0.20040
 Alpha virt. eigenvalues --    0.20266   0.25636   0.31434   0.33535   0.35858

 Mulliken charges:
               1
     1  C   -0.113142
     2  C    0.000187
     3  N   -0.212113
     4  H    0.122526
     5  H    0.088864
     6  H    0.113677
 Sum of Mulliken charges =   0.00000

 Dipole moment (field-independent basis, Debye):
    X=             -4.0503    Y=              0.0458    Z=              0.0593  Tot=              4.0510
 Quadrupole moment (field-independent basis, Debye-Ang):
   XX=            -21.3646   YY=            -17.7110   ZZ=            -17.6060
   XY=              0.2383   XZ=              0.4190   YZ=             -0.2010

 Normal termination of Gaussian 09 at Wed Aug 26 22:27:21 2020.
