 Gaussian 09, Revision D.01,
 Gaussian 09:  ES64L-G09RevD.01 24-Apr-2013

 --------------------
 #p B2PLYPD3/Def2QZVP
 --------------------

 ------------
 cyanomethane
 ------------
 Symbolic Z-matrix:
 Charge =  0 Multiplicity = 1

                         Standard orientation:
 ---------------------------------------------------------------------
 Center     Atomic      Atomic             Coordinates (Angstroms)
 Number     Number       Type             X           Y           Z
 ---------------------------------------------------------------------
      1          6           0        1.205674   -0.022892    0.013716
      2          6           0       -0.302957   -0.045257   -0.019142
      3          7           0       -1.433971    0.017976    0.014101
      4          1           0        1.609347    0.077042    1.064769
      5          1           0        1.415860    1.047927   -0.549919
      6          1           0        1.596284   -0.841911   -0.581006
 ---------------------------------------------------------------------

 SCF Done:  E(RB2PLYPD3) =  -132.520190099     A.U. after   12 cycles
 E2(B2PLYPD3) =    -0.1797297786D+00 E(B2PLYPD3) =    -0.13269991987722D+03

 The electronic state is 1-A.
 Alpha  occ. eigenvalues --  -14.83504 -10.69376 -10.65771  -1.04802  -0.87183
 Alpha  occ. eigenvalues --   -0.57863  -0.54424  -0.50817  -0.44505  -0.39881
 Alpha  occ. eigenvalues --   -0.39065
 Alpha virt. eigenvalues --    0.03172   0.07333   0.08479   0.10272   0.11178
 Alpha virt. eigenvalues --    0.12132   0.14728   0.15344   0.17079   0.19865
 Alpha virt. eigenvalues --    0.20098   0.24430   0.30945   0.32124   0.35246

 Mulliken charges:
               1
     1  C   -0.125386
     2  C   -0.002848
     3  N   -0.193266
     4  H    0.110552
     5  H    0.097897
     6  H    0.113050
 Sum of Mulliken charges =   0.00000

 Dipole moment (field-independent basis, Debye):
    X=              4.0823    Y=             -0.0224    Z=             -0.0166  Tot=              4.0824
 Quadrupole moment (field-independent basis, Debye-Ang):
   XX=            -21.4096   YY=            -17.7431   ZZ=            -17.6898
   XY=             -0.0170   XZ=              0.1788   YZ=              0.1420

 Normal termination of Gaussian 09 at Wed Aug 26 22:35:32 2020.
