 Gaussian 09, Revision D.01,
 Gaussian 09:  ES64L-G09RevD.01 24-Apr-2013

 --------------------
 #p B2PLYPD3/Def2QZVP
 --------------------

 ------------
 cyanomethane
 ------------
 Symbolic Z-matrix:
 Charge =  0 Multiplicity = 1

                         Standard orientation:
 ---------------------------------------------------------------------
 Center     Atomic      Atomic             Coordinates (Angstroms)
 Number     Number       Type             X           Y           Z
 ---------------------------------------------------------------------
      1          6           0        1.180487    0.012387   -0.014285
      2          6           0       -0.288084   -0.038592    0.000512
      3          7           0       -1.441808    0.020027   -0.001062
      4          1           0        1.603389    0.987003   -0.332963
      5          1           0        1.590085   -0.805293   -0.623809
      6          1           0        1.544769   -0.164671    1.046840
 ---------------------------------------------------------------------

 SCF Done:  E(RB2PLYPD3) =  -132.532265117     A.U. after   12 cycles
 E2(B2PLYPD3) =    -0.1809860089D+00 E(B2PLYPD3) =    -0.13271325112566D+03

 The electronic state is 1-A.
 Alpha  occ. eigenvalues --  -14.84348 -10.67998 -10.66468  -1.04137  -0.88375
 Alpha  occ. eigenvalues --   -0.59649  -0.53662  -0.52408  -0.44887  -0.39217
 Alpha  occ. eigenvalues --   -0.38943
 Alpha virt. eigenvalues --    0.03554   0.07302   0.07787   0.10124   0.11333
 Alpha virt. eigenvalues --    0.11631   0.15321   0.15887   0.17135   0.20035
 Alpha virt. eigenvalues --    0.20122   0.25269   0.32396   0.33615   0.34831

 Mulliken charges:
               1
     1  C   -0.088117
     2  C    0.002168
     3  N   -0.204574
     4  H    0.100305
     5  H    0.097864
     6  H    0.092354
 Sum of Mulliken charges =   0.00000

 Dipole moment (field-independent basis, Debye):
    X=              4.1241    Y=             -0.0335    Z=              0.0168  Tot=              4.1243
 Quadrupole moment (field-independent basis, Debye-Ang):
   XX=            -20.9480   YY=            -17.7519   ZZ=            -17.9202
   XY=              0.1141   XZ=             -0.0029   YZ=              0.0170

 Normal termination of Gaussian 09 at Wed Aug 26 11:49:28 2020.
