 Gaussian 09, Revision D.01,
 Gaussian 09:  ES64L-G09RevD.01 24-Apr-2013

 --------------------
 #p B2PLYPD3/Def2QZVP
 --------------------

 ------------
 cyanomethane
 ------------
 Symbolic Z-matrix:
 Charge =  0 Multiplicity = 1

                         Standard orientation:
 ---------------------------------------------------------------------
 Center     Atomic      Atomic             Coordinates (Angstroms)
 Number     Number       Type             X           Y           Z
 ---------------------------------------------------------------------
      1          6           0       -1.190999   -0.016990   -0.005203
      2          6           0        0.287576    0.010800   -0.022752
      3          7           0        1.429201   -0.002181    0.016709
      4          1           0       -1.588636    0.038541    0.985822
      5          1           0       -1.477583   -0.897185   -0.450763
      6          1           0       -1.517650    0.911056   -0.484289
 ---------------------------------------------------------------------

 SCF Done:  E(RB2PLYPD3) =  -132.531516100     A.U. after   11 cycles
 E2(B2PLYPD3) =    -0.1791890989D+00 E(B2PLYPD3) =    -0.13271070519918D+03

 The electronic state is 1-A.
 Alpha  occ. eigenvalues --  -14.83764 -10.66532 -10.65842  -1.04504  -0.89544
 Alpha  occ. eigenvalues --   -0.59240  -0.56146  -0.52985  -0.44616  -0.39598
 Alpha  occ. eigenvalues --   -0.39255
 Alpha virt. eigenvalues --    0.03858   0.08184   0.08972   0.10235   0.11209
 Alpha virt. eigenvalues --    0.11661   0.15263   0.15991   0.16595   0.19963
 Alpha virt. eigenvalues --    0.20116   0.24972   0.32776   0.34233   0.35746

 Mulliken charges:
               1
     1  C   -0.084111
     2  C   -0.006669
     3  N   -0.200871
     4  H    0.091186
     5  H    0.104352
     6  H    0.096112
 Sum of Mulliken charges =   0.00000

 Dipole moment (field-independent basis, Debye):
    X=             -4.1157    Y=              0.0138    Z=              0.0061  Tot=              4.1158
 Quadrupole moment (field-independent basis, Debye-Ang):
   XX=            -21.0504   YY=            -17.4588   ZZ=            -17.8636
   XY=             -0.0456   XZ=             -0.2470   YZ=              0.0633

 Normal termination of Gaussian 09 at Wed Aug 26 10:36:15 2020.
