 Gaussian 09, Revision D.01,
 Gaussian 09:  ES64L-G09RevD.01 24-Apr-2013

 --------------------
 #p B2PLYPD3/Def2QZVP
 --------------------

 ------------
 cyanomethane
 ------------
 Symbolic Z-matrix:
 Charge =  0 Multiplicity = 1

                         Standard orientation:
 ---------------------------------------------------------------------
 Center     Atomic      Atomic             Coordinates (Angstroms)
 Number     Number       Type             X           Y           Z
 ---------------------------------------------------------------------
      1          6           0       -1.173140    0.007735   -0.002401
      2          6           0        0.272388   -0.005935    0.005698
      3          7           0        1.432507    0.003991   -0.004048
      4          1           0       -1.515471   -0.406353    0.939925
      5          1           0       -1.541361   -0.640892   -0.801301
      6          1           0       -1.566206    1.008513   -0.130071
 ---------------------------------------------------------------------

 SCF Done:  E(RB2PLYPD3) =  -132.534996674     A.U. after   12 cycles
 E2(B2PLYPD3) =    -0.1809123962D+00 E(B2PLYPD3) =    -0.13271590907051D+03

 The electronic state is 1-A.
 Alpha  occ. eigenvalues --  -14.84300 -10.66951 -10.66335  -1.03899  -0.89537
 Alpha  occ. eigenvalues --   -0.59866  -0.54376  -0.53871  -0.44789  -0.38919
 Alpha  occ. eigenvalues --   -0.38790
 Alpha virt. eigenvalues --    0.03778   0.07723   0.07917   0.10144   0.11385
 Alpha virt. eigenvalues --    0.11511   0.15472   0.15927   0.16596   0.20118
 Alpha virt. eigenvalues --    0.20151   0.25548   0.32813   0.34372   0.34881

 Mulliken charges:
               1
     1  C   -0.083691
     2  C   -0.000442
     3  N   -0.209539
     4  H    0.097195
     5  H    0.096870
     6  H    0.099607
 Sum of Mulliken charges =   0.00000

 Dipole moment (field-independent basis, Debye):
    X=             -4.1327    Y=             -0.0175    Z=              0.0117  Tot=              4.1328
 Quadrupole moment (field-independent basis, Debye-Ang):
   XX=            -21.0376   YY=            -17.6951   ZZ=            -17.7925
   XY=             -0.0210   XZ=              0.0308   YZ=             -0.0084

 Normal termination of Gaussian 09 at Wed Aug 26 23:57:07 2020.
