 Gaussian 09, Revision D.01,
 Gaussian 09:  ES64L-G09RevD.01 24-Apr-2013

 --------------------
 #p B2PLYPD3/Def2QZVP
 --------------------

 ------------
 cyanomethane
 ------------
 Symbolic Z-matrix:
 Charge =  0 Multiplicity = 1

                         Standard orientation:
 ---------------------------------------------------------------------
 Center     Atomic      Atomic             Coordinates (Angstroms)
 Number     Number       Type             X           Y           Z
 ---------------------------------------------------------------------
      1          6           0       -1.167323    0.016700    0.011739
      2          6           0        0.256759   -0.017584    0.060646
      3          7           0        1.421625    0.011044   -0.031539
      4          1           0       -1.501174   -0.161723    0.938603
      5          1           0       -1.453589   -0.892233   -0.688729
      6          1           0       -1.533230    0.981955   -0.463415
 ---------------------------------------------------------------------

 SCF Done:  E(RB2PLYPD3) =  -132.519241338     A.U. after   12 cycles
 E2(B2PLYPD3) =    -0.1821091355D+00 E(B2PLYPD3) =    -0.13270135047360D+03

 The electronic state is 1-A.
 Alpha  occ. eigenvalues --  -14.84370 -10.67341 -10.66331  -1.03567  -0.89920
 Alpha  occ. eigenvalues --   -0.59513  -0.55813  -0.52555  -0.44702  -0.38648
 Alpha  occ. eigenvalues --   -0.38084
 Alpha virt. eigenvalues --    0.03297   0.06610   0.08534   0.10045   0.11049
 Alpha virt. eigenvalues --    0.11837   0.15189   0.15493   0.16434   0.20080
 Alpha virt. eigenvalues --    0.20289   0.25941   0.31931   0.33191   0.34790

 Mulliken charges:
               1
     1  C   -0.107619
     2  C    0.004652
     3  N   -0.215737
     4  H    0.110830
     5  H    0.098971
     6  H    0.108902
 Sum of Mulliken charges =   0.00000

 Dipole moment (field-independent basis, Debye):
    X=             -4.0889    Y=             -0.0235    Z=              0.0472  Tot=              4.0892
 Quadrupole moment (field-independent basis, Debye-Ang):
   XX=            -21.4083   YY=            -17.6334   ZZ=            -17.7221
   XY=             -0.0898   XZ=              0.1177   YZ=             -0.0840

 Normal termination of Gaussian 09 at Wed Aug 26 23:53:04 2020.
