 Gaussian 09, Revision D.01,
 Gaussian 09:  ES64L-G09RevD.01 24-Apr-2013

 --------------------
 #p B2PLYPD3/Def2QZVP
 --------------------

 ------------
 cyanomethane
 ------------
 Symbolic Z-matrix:
 Charge =  0 Multiplicity = 1

                         Standard orientation:
 ---------------------------------------------------------------------
 Center     Atomic      Atomic             Coordinates (Angstroms)
 Number     Number       Type             X           Y           Z
 ---------------------------------------------------------------------
      1          6           0       -1.207304   -0.030663    0.031022
      2          6           0        0.296002    0.010052   -0.080231
      3          7           0        1.439588    0.001570    0.037666
      4          1           0       -1.504182   -0.143137    1.006955
      5          1           0       -1.512667   -0.798559   -0.638265
      6          1           0       -1.592456    1.054372   -0.337098
 ---------------------------------------------------------------------

 SCF Done:  E(RB2PLYPD3) =  -132.521358547     A.U. after   12 cycles
 E2(B2PLYPD3) =    -0.1804919689D+00 E(B2PLYPD3) =    -0.13270185051574D+03

 The electronic state is 1-A.
 Alpha  occ. eigenvalues --  -14.84081 -10.67927 -10.66194  -1.04215  -0.88383
 Alpha  occ. eigenvalues --   -0.58739  -0.55510  -0.51608  -0.44647  -0.39518
 Alpha  occ. eigenvalues --   -0.39023
 Alpha virt. eigenvalues --    0.03459   0.07278   0.08697   0.10053   0.11014
 Alpha virt. eigenvalues --    0.11593   0.15063   0.15580   0.16576   0.19932
 Alpha virt. eigenvalues --    0.20071   0.24948   0.31013   0.33435   0.35568

 Mulliken charges:
               1
     1  C   -0.103246
     2  C   -0.001590
     3  N   -0.202944
     4  H    0.110142
     5  H    0.108056
     6  H    0.089582
 Sum of Mulliken charges =   0.00000

 Dipole moment (field-independent basis, Debye):
    X=             -4.0793    Y=             -0.0255    Z=             -0.0265  Tot=              4.0795
 Quadrupole moment (field-independent basis, Debye-Ang):
   XX=            -21.2822   YY=            -17.7027   ZZ=            -17.7337
   XY=             -0.0312   XZ=             -0.2390   YZ=              0.0981

 Normal termination of Gaussian 09 at Wed Aug 26 22:25:46 2020.
