 Gaussian 09, Revision D.01,
 Gaussian 09:  ES64L-G09RevD.01 24-Apr-2013

 --------------------
 #p B2PLYPD3/Def2QZVP
 --------------------

 ------------
 cyanomethane
 ------------
 Symbolic Z-matrix:
 Charge =  0 Multiplicity = 1

                         Standard orientation:
 ---------------------------------------------------------------------
 Center     Atomic      Atomic             Coordinates (Angstroms)
 Number     Number       Type             X           Y           Z
 ---------------------------------------------------------------------
      1          6           0        1.204879    0.014419    0.006526
      2          6           0       -0.295955    0.052635    0.006513
      3          7           0       -1.435691   -0.017072   -0.010111
      4          1           0        1.513492   -0.626956   -0.787110
      5          1           0        1.375228   -0.538311    0.834287
      6          1           0        1.707572    0.882448   -0.054629
 ---------------------------------------------------------------------

 SCF Done:  E(RB2PLYPD3) =  -132.521796619     A.U. after   12 cycles
 E2(B2PLYPD3) =    -0.1789113458D+00 E(B2PLYPD3) =    -0.13270070796491D+03

 The electronic state is 1-A.
 Alpha  occ. eigenvalues --  -14.83793 -10.66038 -10.65626  -1.04532  -0.90216
 Alpha  occ. eigenvalues --   -0.60090  -0.56186  -0.53644  -0.44620  -0.39819
 Alpha  occ. eigenvalues --   -0.39363
 Alpha virt. eigenvalues --    0.03919   0.08721   0.09372   0.10488   0.10983
 Alpha virt. eigenvalues --    0.11667   0.15082   0.15628   0.17434   0.19942
 Alpha virt. eigenvalues --    0.20166   0.24507   0.32582   0.34739   0.36483

 Mulliken charges:
               1
     1  C   -0.076584
     2  C   -0.002865
     3  N   -0.201280
     4  H    0.086233
     5  H    0.097932
     6  H    0.096564
 Sum of Mulliken charges =   0.00000

 Dipole moment (field-independent basis, Debye):
    X=              4.1564    Y=             -0.0307    Z=              0.0208  Tot=              4.1565
 Quadrupole moment (field-independent basis, Debye-Ang):
   XX=            -20.7741   YY=            -17.5431   ZZ=            -17.8405
   XY=             -0.0197   XZ=             -0.1618   YZ=             -0.0703

 Normal termination of Gaussian 09 at Wed Aug 26 22:55:21 2020.
