 Gaussian 09, Revision D.01,
 Gaussian 09:  ES64L-G09RevD.01 24-Apr-2013

 --------------------
 #p B2PLYPD3/Def2QZVP
 --------------------

 ------------
 cyanomethane
 ------------
 Symbolic Z-matrix:
 Charge =  0 Multiplicity = 1

                         Standard orientation:
 ---------------------------------------------------------------------
 Center     Atomic      Atomic             Coordinates (Angstroms)
 Number     Number       Type             X           Y           Z
 ---------------------------------------------------------------------
      1          6           0       -1.189411   -0.003130    0.022368
      2          6           0        0.283675    0.026152    0.003755
      3          7           0        1.436750   -0.016035   -0.008712
      4          1           0       -1.609623   -0.744062   -0.727746
      5          1           0       -1.523878    0.973945   -0.309820
      6          1           0       -1.489332   -0.255771    0.941809
 ---------------------------------------------------------------------

 SCF Done:  E(RB2PLYPD3) =  -132.527854455     A.U. after   12 cycles
 E2(B2PLYPD3) =    -0.1802901846D+00 E(B2PLYPD3) =    -0.13270814463949D+03

 The electronic state is 1-A.
 Alpha  occ. eigenvalues --  -14.84162 -10.66784 -10.66245  -1.04097  -0.89507
 Alpha  occ. eigenvalues --   -0.59491  -0.56055  -0.52612  -0.44728  -0.39343
 Alpha  occ. eigenvalues --   -0.38948
 Alpha virt. eigenvalues --    0.03707   0.07643   0.08818   0.10195   0.11093
 Alpha virt. eigenvalues --    0.11566   0.15311   0.15932   0.16621   0.20021
 Alpha virt. eigenvalues --    0.20144   0.25066   0.32454   0.33855   0.35641

 Mulliken charges:
               1
     1  C   -0.085337
     2  C   -0.002986
     3  N   -0.206165
     4  H    0.090732
     5  H    0.097786
     6  H    0.105971
 Sum of Mulliken charges =   0.00000

 Dipole moment (field-independent basis, Debye):
    X=             -4.1276    Y=              0.0280    Z=              0.0109  Tot=              4.1277
 Quadrupole moment (field-independent basis, Debye-Ang):
   XX=            -21.0229   YY=            -17.7593   ZZ=            -17.6914
   XY=              0.1278   XZ=              0.1352   YZ=             -0.0963

 Normal termination of Gaussian 09 at Wed Aug 26 16:09:54 2020.
