 Gaussian 09, Revision D.01,
 Gaussian 09:  ES64L-G09RevD.01 24-Apr-2013

 --------------------
 #p B2PLYPD3/Def2QZVP
 --------------------

 ------------
 cyanomethane
 ------------
 Symbolic Z-matrix:
 Charge =  0 Multiplicity = 1

                         Standard orientation:
 ---------------------------------------------------------------------
 Center     Atomic      Atomic             Coordinates (Angstroms)
 Number     Number       Type             X           Y           Z
 ---------------------------------------------------------------------
      1          6           0        1.203865    0.003681   -0.004480
      2          6           0       -0.270215   -0.042254   -0.024173
      3          7           0       -1.451100    0.034824    0.010139
      4          1           0        1.423789   -0.767873   -0.702043
      5          1           0        1.439350   -0.288422    1.040148
      6          1           0        1.692659    1.043961   -0.237154
 ---------------------------------------------------------------------

 SCF Done:  E(RB2PLYPD3) =  -132.519324095     A.U. after   13 cycles
 E2(B2PLYPD3) =    -0.1837724774D+00 E(B2PLYPD3) =    -0.13270309657283D+03

 The electronic state is 1-A.
 Alpha  occ. eigenvalues --  -14.84897 -10.68239 -10.67086  -1.02861  -0.88892
 Alpha  occ. eigenvalues --   -0.58240  -0.55084  -0.52588  -0.44675  -0.38309
 Alpha  occ. eigenvalues --   -0.38167
 Alpha virt. eigenvalues --    0.03235   0.06534   0.08344   0.09973   0.10878
 Alpha virt. eigenvalues --    0.11294   0.14678   0.15059   0.16839   0.20178
 Alpha virt. eigenvalues --    0.20341   0.25088   0.31715   0.33463   0.34421

 Mulliken charges:
               1
     1  C   -0.110331
     2  C    0.003624
     3  N   -0.219847
     4  H    0.112810
     5  H    0.108178
     6  H    0.105566
 Sum of Mulliken charges =   0.00000

 Dipole moment (field-independent basis, Debye):
    X=              4.1407    Y=             -0.0597    Z=              0.0108  Tot=              4.1412
 Quadrupole moment (field-independent basis, Debye-Ang):
   XX=            -21.4134   YY=            -17.7363   ZZ=            -17.8711
   XY=              0.3717   XZ=              0.0529   YZ=              0.0581

 Normal termination of Gaussian 09 at Wed Aug 26 18:39:48 2020.
