 Gaussian 09, Revision D.01,
 Gaussian 09:  ES64L-G09RevD.01 24-Apr-2013

 --------------------
 #p B2PLYPD3/Def2QZVP
 --------------------

 ------------
 cyanomethane
 ------------
 Symbolic Z-matrix:
 Charge =  0 Multiplicity = 1

                         Standard orientation:
 ---------------------------------------------------------------------
 Center     Atomic      Atomic             Coordinates (Angstroms)
 Number     Number       Type             X           Y           Z
 ---------------------------------------------------------------------
      1          6           0       -1.176318   -0.003732   -0.002942
      2          6           0        0.286818    0.015441    0.007658
      3          7           0        1.435617   -0.003418   -0.003191
      4          1           0       -1.558336   -0.354229    0.948152
      5          1           0       -1.526455   -0.687208   -0.763503
      6          1           0       -1.627524    0.995110   -0.190606
 ---------------------------------------------------------------------

 SCF Done:  E(RB2PLYPD3) =  -132.535354856     A.U. after   12 cycles
 E2(B2PLYPD3) =    -0.1800580642D+00 E(B2PLYPD3) =    -0.13271541292065D+03

 The electronic state is 1-A.
 Alpha  occ. eigenvalues --  -14.84123 -10.67217 -10.66210  -1.04376  -0.88982
 Alpha  occ. eigenvalues --   -0.59948  -0.53833  -0.53310  -0.44840  -0.39275
 Alpha  occ. eigenvalues --   -0.39248
 Alpha virt. eigenvalues --    0.03743   0.07750   0.08094   0.10207   0.11511
 Alpha virt. eigenvalues --    0.11541   0.15402   0.16350   0.16773   0.20046
 Alpha virt. eigenvalues --    0.20061   0.25267   0.32637   0.34642   0.34771

 Mulliken charges:
               1
     1  C   -0.079387
     2  C   -0.000922
     3  N   -0.202526
     4  H    0.093871
     5  H    0.096170
     6  H    0.092796
 Sum of Mulliken charges =   0.00000

 Dipole moment (field-independent basis, Debye):
    X=             -4.1279    Y=             -0.0134    Z=              0.0104  Tot=              4.1280
 Quadrupole moment (field-independent basis, Debye-Ang):
   XX=            -20.8662   YY=            -17.7537   ZZ=            -17.8168
   XY=             -0.0119   XZ=             -0.0056   YZ=              0.0142

 Normal termination of Gaussian 09 at Wed Aug 26 10:03:13 2020.
