 Gaussian 09, Revision D.01,
 Gaussian 09:  ES64L-G09RevD.01 24-Apr-2013

 --------------------
 #p B2PLYPD3/Def2QZVP
 --------------------

 ------------
 cyanomethane
 ------------
 Symbolic Z-matrix:
 Charge =  0 Multiplicity = 1

                         Standard orientation:
 ---------------------------------------------------------------------
 Center     Atomic      Atomic             Coordinates (Angstroms)
 Number     Number       Type             X           Y           Z
 ---------------------------------------------------------------------
      1          6           0        1.177167   -0.003919    0.001537
      2          6           0       -0.273558    0.009667    0.001137
      3          7           0       -1.430719   -0.007271   -0.003259
      4          1           0        1.514855    0.900383   -0.454948
      5          1           0        1.580195   -0.839624   -0.540583
      6          1           0        1.498334   -0.044353    1.002299
 ---------------------------------------------------------------------

 SCF Done:  E(RB2PLYPD3) =  -132.534361234     A.U. after   12 cycles
 E2(B2PLYPD3) =    -0.1803800521D+00 E(B2PLYPD3) =    -0.13271474128562D+03

 The electronic state is 1-A.
 Alpha  occ. eigenvalues --  -14.84190 -10.66320 -10.66218  -1.03991  -0.89974
 Alpha  occ. eigenvalues --   -0.59910  -0.54984  -0.54332  -0.44744  -0.39007
 Alpha  occ. eigenvalues --   -0.38964
 Alpha virt. eigenvalues --    0.03882   0.07974   0.08400   0.10177   0.11368
 Alpha virt. eigenvalues --    0.11423   0.15486   0.15915   0.16587   0.20123
 Alpha virt. eigenvalues --    0.20135   0.25456   0.32939   0.34872   0.35101

 Mulliken charges:
               1
     1  C   -0.078043
     2  C   -0.002215
     3  N   -0.208931
     4  H    0.096075
     5  H    0.095342
     6  H    0.097772
 Sum of Mulliken charges =   0.00000

 Dipole moment (field-independent basis, Debye):
    X=              4.1356    Y=              0.0160    Z=              0.0098  Tot=              4.1356
 Quadrupole moment (field-independent basis, Debye-Ang):
   XX=            -20.9947   YY=            -17.7127   ZZ=            -17.6967
   XY=             -0.0717   XZ=             -0.0503   YZ=             -0.0069

 Normal termination of Gaussian 09 at Thu Aug 27 00:06:03 2020.
