 Gaussian 09, Revision D.01,
 Gaussian 09:  ES64L-G09RevD.01 24-Apr-2013

 --------------------
 #p B2PLYPD3/Def2QZVP
 --------------------

 ------------
 cyanomethane
 ------------
 Symbolic Z-matrix:
 Charge =  0 Multiplicity = 1

                         Standard orientation:
 ---------------------------------------------------------------------
 Center     Atomic      Atomic             Coordinates (Angstroms)
 Number     Number       Type             X           Y           Z
 ---------------------------------------------------------------------
      1          6           0        1.176489   -0.015617   -0.001588
      2          6           0       -0.281436   -0.010167    0.020921
      3          7           0       -1.439879    0.007768   -0.007262
      4          1           0        1.539038   -0.862946   -0.464156
      5          1           0        1.620600    0.100264    0.974574
      6          1           0        1.549204    0.863012   -0.575582
 ---------------------------------------------------------------------

 SCF Done:  E(RB2PLYPD3) =  -132.532299625     A.U. after   11 cycles
 E2(B2PLYPD3) =    -0.1807343141D+00 E(B2PLYPD3) =    -0.13271303393899D+03

 The electronic state is 1-A.
 Alpha  occ. eigenvalues --  -14.84415 -10.66664 -10.66497  -1.04004  -0.89532
 Alpha  occ. eigenvalues --   -0.60512  -0.55097  -0.52815  -0.44903  -0.39209
 Alpha  occ. eigenvalues --   -0.38874
 Alpha virt. eigenvalues --    0.03767   0.07599   0.08196   0.10186   0.11197
 Alpha virt. eigenvalues --    0.11611   0.15457   0.16356   0.16799   0.20048
 Alpha virt. eigenvalues --    0.20157   0.25349   0.32708   0.34093   0.35629

 Mulliken charges:
               1
     1  C   -0.069552
     2  C    0.001628
     3  N   -0.207925
     4  H    0.097228
     5  H    0.090968
     6  H    0.087652
 Sum of Mulliken charges =   0.00000

 Dipole moment (field-independent basis, Debye):
    X=              4.1501    Y=             -0.0015    Z=              0.0024  Tot=              4.1501
 Quadrupole moment (field-independent basis, Debye-Ang):
   XX=            -20.7818   YY=            -17.7912   ZZ=            -17.8257
   XY=              0.0868   XZ=              0.0001   YZ=              0.0786

 Normal termination of Gaussian 09 at Wed Aug 26 15:05:12 2020.
