 Gaussian 09, Revision D.01,
 Gaussian 09:  ES64L-G09RevD.01 24-Apr-2013

 --------------------
 #p B2PLYPD3/Def2QZVP
 --------------------

 ------------
 cyanomethane
 ------------
 Symbolic Z-matrix:
 Charge =  0 Multiplicity = 1

                         Standard orientation:
 ---------------------------------------------------------------------
 Center     Atomic      Atomic             Coordinates (Angstroms)
 Number     Number       Type             X           Y           Z
 ---------------------------------------------------------------------
      1          6           0        1.173511   -0.004448   -0.012359
      2          6           0       -0.279962   -0.021853   -0.001735
      3          7           0       -1.428828    0.010848    0.004892
      4          1           0        1.582704    0.070419    1.022698
      5          1           0        1.514561    0.907039   -0.523567
      6          1           0        1.543240   -0.895589   -0.448810
 ---------------------------------------------------------------------

 SCF Done:  E(RB2PLYPD3) =  -132.534449965     A.U. after   11 cycles
 E2(B2PLYPD3) =    -0.1800644628D+00 E(B2PLYPD3) =    -0.13271451442736D+03

 The electronic state is 1-A.
 Alpha  occ. eigenvalues --  -14.84023 -10.67114 -10.66060  -1.04324  -0.89255
 Alpha  occ. eigenvalues --   -0.59693  -0.55016  -0.52800  -0.44760  -0.39299
 Alpha  occ. eigenvalues --   -0.38988
 Alpha virt. eigenvalues --    0.03729   0.07646   0.08307   0.10186   0.11327
 Alpha virt. eigenvalues --    0.11767   0.15409   0.16333   0.16431   0.19993
 Alpha virt. eigenvalues --    0.20140   0.25429   0.32801   0.33998   0.35175

 Mulliken charges:
               1
     1  C   -0.084936
     2  C   -0.002259
     3  N   -0.203631
     4  H    0.091157
     5  H    0.098467
     6  H    0.101200
 Sum of Mulliken charges =   0.00000

 Dipole moment (field-independent basis, Debye):
    X=              4.1150    Y=             -0.0079    Z=              0.0072  Tot=              4.1150
 Quadrupole moment (field-independent basis, Debye-Ang):
   XX=            -21.0150   YY=            -17.5955   ZZ=            -17.8634
   XY=              0.0608   XZ=              0.1134   YZ=              0.0284

 Normal termination of Gaussian 09 at Thu Aug 27 00:01:16 2020.
