 Gaussian 09, Revision D.01,
 Gaussian 09:  ES64L-G09RevD.01 24-Apr-2013

 --------------------
 #p B2PLYPD3/Def2QZVP
 --------------------

 ------------
 cyanomethane
 ------------
 Symbolic Z-matrix:
 Charge =  0 Multiplicity = 1

                         Standard orientation:
 ---------------------------------------------------------------------
 Center     Atomic      Atomic             Coordinates (Angstroms)
 Number     Number       Type             X           Y           Z
 ---------------------------------------------------------------------
      1          6           0        1.178481    0.008182   -0.005194
      2          6           0       -0.286761   -0.038653    0.001031
      3          7           0       -1.434272    0.018076   -0.000677
      4          1           0        1.543667    1.039308   -0.045172
      5          1           0        1.582719   -0.541822   -0.800629
      6          1           0        1.563198   -0.441190    0.875519
 ---------------------------------------------------------------------

 SCF Done:  E(RB2PLYPD3) =  -132.534247298     A.U. after   11 cycles
 E2(B2PLYPD3) =    -0.1797729026D+00 E(B2PLYPD3) =    -0.13271402020092D+03

 The electronic state is 1-A.
 Alpha  occ. eigenvalues --  -14.84111 -10.66489 -10.66178  -1.04373  -0.89501
 Alpha  occ. eigenvalues --   -0.60219  -0.54301  -0.53850  -0.44831  -0.39371
 Alpha  occ. eigenvalues --   -0.39281
 Alpha virt. eigenvalues --    0.03789   0.08014   0.08482   0.10207   0.11393
 Alpha virt. eigenvalues --    0.11498   0.15432   0.16210   0.16932   0.20037
 Alpha virt. eigenvalues --    0.20065   0.25327   0.32929   0.34745   0.35220

 Mulliken charges:
               1
     1  C   -0.070266
     2  C   -0.000957
     3  N   -0.203231
     4  H    0.094097
     5  H    0.091223
     6  H    0.089135
 Sum of Mulliken charges =   0.00000

 Dipole moment (field-independent basis, Debye):
    X=              4.1335    Y=             -0.0482    Z=              0.0103  Tot=              4.1338
 Quadrupole moment (field-independent basis, Debye-Ang):
   XX=            -20.7907   YY=            -17.6547   ZZ=            -17.8576
   XY=              0.0245   XZ=              0.0078   YZ=              0.0160

 Normal termination of Gaussian 09 at Wed Aug 26 12:40:48 2020.
