 Gaussian 09, Revision D.01,
 Gaussian 09:  ES64L-G09RevD.01 24-Apr-2013

 --------------------
 #p B2PLYPD3/Def2QZVP
 --------------------

 ------------
 cyanomethane
 ------------
 Symbolic Z-matrix:
 Charge =  0 Multiplicity = 1

                         Standard orientation:
 ---------------------------------------------------------------------
 Center     Atomic      Atomic             Coordinates (Angstroms)
 Number     Number       Type             X           Y           Z
 ---------------------------------------------------------------------
      1          6           0        1.182028    0.006542   -0.004746
      2          6           0       -0.288924   -0.022108    0.017339
      3          7           0       -1.438257    0.014290   -0.014026
      4          1           0        1.634245    0.992117   -0.258685
      5          1           0        1.591338   -0.747022   -0.668982
      6          1           0        1.483591   -0.251723    0.950288
 ---------------------------------------------------------------------

 SCF Done:  E(RB2PLYPD3) =  -132.531853696     A.U. after   12 cycles
 E2(B2PLYPD3) =    -0.1800865782D+00 E(B2PLYPD3) =    -0.13271194027389D+03

 The electronic state is 1-A.
 Alpha  occ. eigenvalues --  -14.84178 -10.66838 -10.66282  -1.04318  -0.89287
 Alpha  occ. eigenvalues --   -0.59939  -0.54256  -0.53411  -0.44844  -0.39321
 Alpha  occ. eigenvalues --   -0.39265
 Alpha virt. eigenvalues --    0.03703   0.07602   0.08666   0.10181   0.11412
 Alpha virt. eigenvalues --    0.11453   0.15413   0.15750   0.17434   0.20051
 Alpha virt. eigenvalues --    0.20134   0.25195   0.32621   0.34778   0.34950

 Mulliken charges:
               1
     1  C   -0.077024
     2  C   -0.000315
     3  N   -0.203487
     4  H    0.093781
     5  H    0.091762
     6  H    0.095283
 Sum of Mulliken charges =   0.00000

 Dipole moment (field-independent basis, Debye):
    X=              4.1369    Y=             -0.0466    Z=              0.0565  Tot=              4.1375
 Quadrupole moment (field-independent basis, Debye-Ang):
   XX=            -20.8037   YY=            -17.6934   ZZ=            -17.8737
   XY=              0.0756   XZ=             -0.0883   YZ=             -0.0083

 Normal termination of Gaussian 09 at Wed Aug 26 15:17:51 2020.
