 Gaussian 09, Revision D.01,
 Gaussian 09:  ES64L-G09RevD.01 24-Apr-2013

 --------------------
 #p B2PLYPD3/Def2QZVP
 --------------------

 ------------
 cyanomethane
 ------------
 Symbolic Z-matrix:
 Charge =  0 Multiplicity = 1

                         Standard orientation:
 ---------------------------------------------------------------------
 Center     Atomic      Atomic             Coordinates (Angstroms)
 Number     Number       Type             X           Y           Z
 ---------------------------------------------------------------------
      1          6           0        1.177118    0.002763   -0.015492
      2          6           0       -0.268345    0.019636    0.017259
      3          7           0       -1.437323   -0.004087   -0.006134
      4          1           0        1.529298   -0.308581    0.974602
      5          1           0        1.616675    0.949696   -0.238705
      6          1           0        1.462650   -0.746902   -0.703559
 ---------------------------------------------------------------------

 SCF Done:  E(RB2PLYPD3) =  -132.532452139     A.U. after   12 cycles
 E2(B2PLYPD3) =    -0.1815960950D+00 E(B2PLYPD3) =    -0.13271404823427D+03

 The electronic state is 1-A.
 Alpha  occ. eigenvalues --  -14.84545 -10.66635 -10.66573  -1.03540  -0.89894
 Alpha  occ. eigenvalues --   -0.60108  -0.55189  -0.53738  -0.44809  -0.38776
 Alpha  occ. eigenvalues --   -0.38529
 Alpha virt. eigenvalues --    0.03821   0.07653   0.07925   0.10153   0.11188
 Alpha virt. eigenvalues --    0.11469   0.15420   0.15765   0.16699   0.20144
 Alpha virt. eigenvalues --    0.20217   0.25567   0.32690   0.34266   0.35375

 Mulliken charges:
               1
     1  C   -0.079571
     2  C    0.001394
     3  N   -0.214475
     4  H    0.092927
     5  H    0.098515
     6  H    0.101210
 Sum of Mulliken charges =   0.00000

 Dipole moment (field-independent basis, Debye):
    X=              4.1544    Y=             -0.0142    Z=              0.0177  Tot=              4.1545
 Quadrupole moment (field-independent basis, Debye-Ang):
   XX=            -21.0023   YY=            -17.6916   ZZ=            -17.8362
   XY=              0.0476   XZ=              0.0198   YZ=              0.0294

 Normal termination of Gaussian 09 at Wed Aug 26 14:02:37 2020.
