 Gaussian 09, Revision D.01,
 Gaussian 09:  ES64L-G09RevD.01 24-Apr-2013

 --------------------
 #p B2PLYPD3/Def2QZVP
 --------------------

 ------------
 cyanomethane
 ------------
 Symbolic Z-matrix:
 Charge =  0 Multiplicity = 1

                         Standard orientation:
 ---------------------------------------------------------------------
 Center     Atomic      Atomic             Coordinates (Angstroms)
 Number     Number       Type             X           Y           Z
 ---------------------------------------------------------------------
      1          6           0       -1.198987    0.015455    0.006153
      2          6           0        0.278427   -0.007015    0.016384
      3          7           0        1.451210    0.012295   -0.014717
      4          1           0       -1.418301   -0.384089    0.856698
      5          1           0       -1.518082   -0.700352   -0.711663
      6          1           0       -1.698724    0.947735   -0.177244
 ---------------------------------------------------------------------

 SCF Done:  E(RB2PLYPD3) =  -132.516882725     A.U. after   13 cycles
 E2(B2PLYPD3) =    -0.1817270119D+00 E(B2PLYPD3) =    -0.13269860973718D+03

 The electronic state is 1-A.
 Alpha  occ. eigenvalues --  -14.84747 -10.66936 -10.65664  -1.03373  -0.90649
 Alpha  occ. eigenvalues --   -0.60125  -0.56234  -0.53985  -0.44827  -0.38931
 Alpha  occ. eigenvalues --   -0.38648
 Alpha virt. eigenvalues --    0.03821   0.07496   0.08980   0.10114   0.10985
 Alpha virt. eigenvalues --    0.11336   0.15170   0.15360   0.17583   0.20201
 Alpha virt. eigenvalues --    0.20323   0.24943   0.32351   0.34864   0.35939

 Mulliken charges:
               1
     1  C   -0.079593
     2  C    0.003907
     3  N   -0.216186
     4  H    0.104708
     5  H    0.088583
     6  H    0.098581
 Sum of Mulliken charges =   0.00000

 Dipole moment (field-independent basis, Debye):
    X=             -4.1947    Y=             -0.0724    Z=              0.0378  Tot=              4.1955
 Quadrupole moment (field-independent basis, Debye-Ang):
   XX=            -20.7646   YY=            -17.6426   ZZ=            -17.9429
   XY=             -0.0986   XZ=              0.1323   YZ=             -0.0711

 Normal termination of Gaussian 09 at Wed Aug 26 22:13:11 2020.
