 Gaussian 09, Revision D.01,
 Gaussian 09:  ES64L-G09RevD.01 24-Apr-2013

 --------------------
 #p B2PLYPD3/Def2QZVP
 --------------------

 ------------
 cyanomethane
 ------------
 Symbolic Z-matrix:
 Charge =  0 Multiplicity = 1

                         Standard orientation:
 ---------------------------------------------------------------------
 Center     Atomic      Atomic             Coordinates (Angstroms)
 Number     Number       Type             X           Y           Z
 ---------------------------------------------------------------------
      1          6           0       -1.179069    0.013694   -0.004709
      2          6           0        0.265965    0.019923   -0.000908
      3          7           0        1.429764   -0.015768    0.005493
      4          1           0       -1.454738    1.049098   -0.050762
      5          1           0       -1.586706   -0.526109    0.936730
      6          1           0       -1.488283   -0.614316   -0.890711
 ---------------------------------------------------------------------

 SCF Done:  E(RB2PLYPD3) =  -132.527624860     A.U. after   12 cycles
 E2(B2PLYPD3) =    -0.1817964429D+00 E(B2PLYPD3) =    -0.13270942130304D+03

 The electronic state is 1-A.
 Alpha  occ. eigenvalues --  -14.84268 -10.68011 -10.66316  -1.03654  -0.89110
 Alpha  occ. eigenvalues --   -0.58534  -0.55350  -0.52482  -0.44643  -0.38719
 Alpha  occ. eigenvalues --   -0.38394
 Alpha virt. eigenvalues --    0.03497   0.06925   0.08104   0.10120   0.11201
 Alpha virt. eigenvalues --    0.11703   0.15171   0.15604   0.16119   0.20098
 Alpha virt. eigenvalues --    0.20230   0.25452   0.32259   0.33174   0.34660

 Mulliken charges:
               1
     1  C   -0.108830
     2  C    0.000492
     3  N   -0.212382
     4  H    0.113507
     5  H    0.100970
     6  H    0.106244
 Sum of Mulliken charges =   0.00000

 Dipole moment (field-independent basis, Debye):
    X=             -4.1002    Y=              0.0068    Z=             -0.0132  Tot=              4.1002
 Quadrupole moment (field-independent basis, Debye-Ang):
   XX=            -21.4559   YY=            -17.5573   ZZ=            -17.8457
   XY=              0.1951   XZ=             -0.1015   YZ=              0.0221

 Normal termination of Gaussian 09 at Wed Aug 26 11:34:48 2020.
