 Gaussian 09, Revision D.01,
 Gaussian 09:  ES64L-G09RevD.01 24-Apr-2013

 --------------------
 #p B2PLYPD3/Def2QZVP
 --------------------

 ------------
 cyanomethane
 ------------
 Symbolic Z-matrix:
 Charge =  0 Multiplicity = 1

                         Standard orientation:
 ---------------------------------------------------------------------
 Center     Atomic      Atomic             Coordinates (Angstroms)
 Number     Number       Type             X           Y           Z
 ---------------------------------------------------------------------
      1          6           0       -1.204475    0.013914   -0.010078
      2          6           0        0.266971   -0.074764   -0.002743
      3          7           0        1.449455    0.036786    0.003886
      4          1           0       -1.529226   -0.429080    0.906529
      5          1           0       -1.491873   -0.492225   -0.834350
      6          1           0       -1.500061    1.028901   -0.022455
 ---------------------------------------------------------------------

 SCF Done:  E(RB2PLYPD3) =  -132.523327015     A.U. after   12 cycles
 E2(B2PLYPD3) =    -0.1830544649D+00 E(B2PLYPD3) =    -0.13270638148008D+03

 The electronic state is 1-A.
 Alpha  occ. eigenvalues --  -14.85029 -10.67113 -10.66090  -1.02753  -0.90247
 Alpha  occ. eigenvalues --   -0.59266  -0.56501  -0.54453  -0.44732  -0.38434
 Alpha  occ. eigenvalues --   -0.38265
 Alpha virt. eigenvalues --    0.03695   0.07423   0.08457   0.10062   0.10671
 Alpha virt. eigenvalues --    0.11170   0.15260   0.15445   0.16201   0.20190
 Alpha virt. eigenvalues --    0.20263   0.25305   0.32481   0.34657   0.35533

 Mulliken charges:
               1
     1  C   -0.082629
     2  C    0.001240
     3  N   -0.222491
     4  H    0.098197
     5  H    0.104548
     6  H    0.101136
 Sum of Mulliken charges =   0.00000

 Dipole moment (field-independent basis, Debye):
    X=             -4.1587    Y=             -0.0313    Z=              0.0015  Tot=              4.1588
 Quadrupole moment (field-independent basis, Debye-Ang):
   XX=            -21.1578   YY=            -17.7772   ZZ=            -17.7132
   XY=             -0.1856   XZ=             -0.0586   YZ=              0.0480

 Normal termination of Gaussian 09 at Wed Aug 26 23:33:41 2020.
