 Gaussian 09, Revision D.01,
 Gaussian 09:  ES64L-G09RevD.01 24-Apr-2013

 --------------------
 #p B2PLYPD3/Def2QZVP
 --------------------

 ------------
 cyanomethane
 ------------
 Symbolic Z-matrix:
 Charge =  0 Multiplicity = 1

                         Standard orientation:
 ---------------------------------------------------------------------
 Center     Atomic      Atomic             Coordinates (Angstroms)
 Number     Number       Type             X           Y           Z
 ---------------------------------------------------------------------
      1          6           0        1.158286    0.011790   -0.003725
      2          6           0       -0.278246   -0.026131    0.003728
      3          7           0       -1.426339    0.008774    0.004588
      4          1           0        1.656457   -0.112498    1.007132
      5          1           0        1.490778    0.984545   -0.418582
      6          1           0        1.556896   -0.847421   -0.620683
 ---------------------------------------------------------------------

 SCF Done:  E(RB2PLYPD3) =  -132.531703825     A.U. after   12 cycles
 E2(B2PLYPD3) =    -0.1805202922D+00 E(B2PLYPD3) =    -0.13271222411747D+03

 The electronic state is 1-A.
 Alpha  occ. eigenvalues --  -14.84081 -10.67904 -10.66085  -1.04453  -0.88785
 Alpha  occ. eigenvalues --   -0.59960  -0.53830  -0.52251  -0.44866  -0.39122
 Alpha  occ. eigenvalues --   -0.38946
 Alpha virt. eigenvalues --    0.03589   0.07112   0.07624   0.10141   0.11673
 Alpha virt. eigenvalues --    0.11857   0.15458   0.16208   0.16851   0.20009
 Alpha virt. eigenvalues --    0.20122   0.25773   0.32633   0.33818   0.34414

 Mulliken charges:
               1
     1  C   -0.090790
     2  C    0.002000
     3  N   -0.202081
     4  H    0.093113
     5  H    0.102062
     6  H    0.095696
 Sum of Mulliken charges =   0.00000

 Dipole moment (field-independent basis, Debye):
    X=              4.1004    Y=             -0.0141    Z=             -0.0031  Tot=              4.1005
 Quadrupole moment (field-independent basis, Debye-Ang):
   XX=            -20.9715   YY=            -17.6694   ZZ=            -17.9204
   XY=             -0.0219   XZ=              0.1417   YZ=             -0.0221

 Normal termination of Gaussian 09 at Wed Aug 26 14:35:57 2020.
