 Gaussian 09, Revision D.01,
 Gaussian 09:  ES64L-G09RevD.01 24-Apr-2013

 --------------------
 #p B2PLYPD3/Def2QZVP
 --------------------

 ------------
 cyanomethane
 ------------
 Symbolic Z-matrix:
 Charge =  0 Multiplicity = 1

                         Standard orientation:
 ---------------------------------------------------------------------
 Center     Atomic      Atomic             Coordinates (Angstroms)
 Number     Number       Type             X           Y           Z
 ---------------------------------------------------------------------
      1          6           0       -1.173489   -0.001971   -0.007068
      2          6           0        0.273979    0.022222    0.024647
      3          7           0        1.448887   -0.016079   -0.014346
      4          1           0       -1.522320    1.031515   -0.108000
      5          1           0       -1.577942   -0.425807    0.898548
      6          1           0       -1.644892   -0.614668   -0.795595
 ---------------------------------------------------------------------

 SCF Done:  E(RB2PLYPD3) =  -132.530273534     A.U. after   12 cycles
 E2(B2PLYPD3) =    -0.1825994030D+00 E(B2PLYPD3) =    -0.13271287293706D+03

 The electronic state is 1-A.
 Alpha  occ. eigenvalues --  -14.84951 -10.67183 -10.67034  -1.03381  -0.89299
 Alpha  occ. eigenvalues --   -0.60815  -0.54145  -0.52783  -0.45029  -0.38616
 Alpha  occ. eigenvalues --   -0.38521
 Alpha virt. eigenvalues --    0.03647   0.06859   0.07594   0.10030   0.11168
 Alpha virt. eigenvalues --    0.11527   0.15411   0.16073   0.17057   0.20111
 Alpha virt. eigenvalues --    0.20305   0.25603   0.32559   0.34488   0.34566

 Mulliken charges:
               1
     1  C   -0.071549
     2  C    0.006023
     3  N   -0.214641
     4  H    0.095895
     5  H    0.092145
     6  H    0.092127
 Sum of Mulliken charges =   0.00000

 Dipole moment (field-independent basis, Debye):
    X=             -4.1672    Y=              0.0042    Z=              0.0337  Tot=              4.1674
 Quadrupole moment (field-independent basis, Debye-Ang):
   XX=            -20.7842   YY=            -17.7650   ZZ=            -18.0357
   XY=              0.2086   XZ=              0.0753   YZ=             -0.0253

 Normal termination of Gaussian 09 at Wed Aug 26 11:40:35 2020.
