 Gaussian 09, Revision D.01,
 Gaussian 09:  ES64L-G09RevD.01 24-Apr-2013

 --------------------
 #p B2PLYPD3/Def2QZVP
 --------------------

 ------------
 cyanomethane
 ------------
 Symbolic Z-matrix:
 Charge =  0 Multiplicity = 1

                         Standard orientation:
 ---------------------------------------------------------------------
 Center     Atomic      Atomic             Coordinates (Angstroms)
 Number     Number       Type             X           Y           Z
 ---------------------------------------------------------------------
      1          6           0        1.199626    0.023500   -0.025976
      2          6           0       -0.267725   -0.030212   -0.019660
      3          7           0       -1.445259    0.021197    0.010056
      4          1           0        1.445402   -0.931294   -0.530654
      5          1           0        1.469224   -0.119285    1.118369
      6          1           0        1.610783    0.942471   -0.384291
 ---------------------------------------------------------------------

 SCF Done:  E(RB2PLYPD3) =  -132.520748322     A.U. after   13 cycles
 E2(B2PLYPD3) =    -0.1833410049D+00 E(B2PLYPD3) =    -0.13270408932689D+03

 The electronic state is 1-A.
 Alpha  occ. eigenvalues --  -14.84684 -10.68376 -10.66900  -1.03015  -0.88797
 Alpha  occ. eigenvalues --   -0.59086  -0.55044  -0.52035  -0.44634  -0.38532
 Alpha  occ. eigenvalues --   -0.37946
 Alpha virt. eigenvalues --    0.03390   0.06945   0.07825   0.09913   0.10951
 Alpha virt. eigenvalues --    0.11532   0.14706   0.15076   0.16772   0.20123
 Alpha virt. eigenvalues --    0.20337   0.25116   0.31610   0.32424   0.35107

 Mulliken charges:
               1
     1  C   -0.113196
     2  C    0.006018
     3  N   -0.219334
     4  H    0.110939
     5  H    0.099312
     6  H    0.116261
 Sum of Mulliken charges =   0.00000

 Dipole moment (field-independent basis, Debye):
    X=              4.1333    Y=             -0.0345    Z=              0.0066  Tot=              4.1335
 Quadrupole moment (field-independent basis, Debye-Ang):
   XX=            -21.5206   YY=            -17.5767   ZZ=            -17.9687
   XY=              0.2314   XZ=              0.0620   YZ=             -0.0204

 Normal termination of Gaussian 09 at Wed Aug 26 21:24:35 2020.
