 Gaussian 09, Revision D.01,
 Gaussian 09:  ES64L-G09RevD.01 24-Apr-2013

 --------------------
 #p B2PLYPD3/Def2QZVP
 --------------------

 ------------
 cyanomethane
 ------------
 Symbolic Z-matrix:
 Charge =  0 Multiplicity = 1

                         Standard orientation:
 ---------------------------------------------------------------------
 Center     Atomic      Atomic             Coordinates (Angstroms)
 Number     Number       Type             X           Y           Z
 ---------------------------------------------------------------------
      1          6           0       -1.175554    0.001385   -0.010015
      2          6           0        0.277694    0.011903    0.003349
      3          7           0        1.430205   -0.005059    0.001903
      4          1           0       -1.576740   -0.053938    1.010729
      5          1           0       -1.507224   -0.895761   -0.524874
      6          1           0       -1.540311    0.905384   -0.459179
 ---------------------------------------------------------------------

 SCF Done:  E(RB2PLYPD3) =  -132.535376240     A.U. after   11 cycles
 E2(B2PLYPD3) =    -0.1802496432D+00 E(B2PLYPD3) =    -0.13271562588301D+03

 The electronic state is 1-A.
 Alpha  occ. eigenvalues --  -14.84090 -10.66974 -10.66132  -1.04177  -0.89396
 Alpha  occ. eigenvalues --   -0.59673  -0.54876  -0.53310  -0.44747  -0.39168
 Alpha  occ. eigenvalues --   -0.38969
 Alpha virt. eigenvalues --    0.03782   0.07828   0.08180   0.10188   0.11351
 Alpha virt. eigenvalues --    0.11638   0.15393   0.16251   0.16379   0.20040
 Alpha virt. eigenvalues --    0.20139   0.25416   0.32818   0.34291   0.35056

 Mulliken charges:
               1
     1  C   -0.084417
     2  C   -0.002269
     3  N   -0.205733
     4  H    0.092737
     5  H    0.099539
     6  H    0.100143
 Sum of Mulliken charges =   0.00000

 Dipole moment (field-independent basis, Debye):
    X=             -4.1229    Y=              0.0016    Z=              0.0125  Tot=              4.1229
 Quadrupole moment (field-independent basis, Debye-Ang):
   XX=            -21.0344   YY=            -17.6030   ZZ=            -17.8441
   XY=              0.0180   XZ=             -0.0968   YZ=             -0.0086

 Normal termination of Gaussian 09 at Wed Aug 26 23:57:01 2020.
