 Gaussian 09, Revision D.01,
 Gaussian 09:  ES64L-G09RevD.01 24-Apr-2013

 --------------------
 #p B2PLYPD3/Def2QZVP
 --------------------

 ------------
 cyanomethane
 ------------
 Symbolic Z-matrix:
 Charge =  0 Multiplicity = 1

                         Standard orientation:
 ---------------------------------------------------------------------
 Center     Atomic      Atomic             Coordinates (Angstroms)
 Number     Number       Type             X           Y           Z
 ---------------------------------------------------------------------
      1          6           0       -1.149511    0.006860   -0.000361
      2          6           0        0.282375    0.068526    0.035558
      3          7           0        1.422481   -0.045584   -0.019551
      4          1           0       -1.685474   -0.766181   -0.623168
      5          1           0       -1.473833    0.852044   -0.352952
      6          1           0       -1.595247   -0.219089    0.901791
 ---------------------------------------------------------------------

 SCF Done:  E(RB2PLYPD3) =  -132.514313862     A.U. after   12 cycles
 E2(B2PLYPD3) =    -0.1798893845D+00 E(B2PLYPD3) =    -0.13269420324682D+03

 The electronic state is 1-A.
 Alpha  occ. eigenvalues --  -14.84251 -10.66149 -10.65217  -1.04700  -0.90733
 Alpha  occ. eigenvalues --   -0.62108  -0.56676  -0.51648  -0.45087  -0.39627
 Alpha  occ. eigenvalues --   -0.38995
 Alpha virt. eigenvalues --    0.03439   0.07289   0.09161   0.09937   0.11171
 Alpha virt. eigenvalues --    0.12024   0.15807   0.16439   0.17729   0.19866
 Alpha virt. eigenvalues --    0.20477   0.26171   0.33363   0.34192   0.36245

 Mulliken charges:
               1
     1  C   -0.055303
     2  C    0.009164
     3  N   -0.201097
     4  H    0.072678
     5  H    0.092557
     6  H    0.082001
 Sum of Mulliken charges =   0.00000

 Dipole moment (field-independent basis, Debye):
    X=             -4.1138    Y=              0.0747    Z=              0.0438  Tot=              4.1147
 Quadrupole moment (field-independent basis, Debye-Ang):
   XX=            -20.3372   YY=            -17.7524   ZZ=            -17.8794
   XY=              0.3988   XZ=              0.1006   YZ=             -0.1722

 Normal termination of Gaussian 09 at Wed Aug 26 23:36:33 2020.
