 Gaussian 09, Revision D.01,
 Gaussian 09:  ES64L-G09RevD.01 24-Apr-2013

 --------------------
 #p B2PLYPD3/Def2QZVP
 --------------------

 ------------
 cyanomethane
 ------------
 Symbolic Z-matrix:
 Charge =  0 Multiplicity = 1

                         Standard orientation:
 ---------------------------------------------------------------------
 Center     Atomic      Atomic             Coordinates (Angstroms)
 Number     Number       Type             X           Y           Z
 ---------------------------------------------------------------------
      1          6           0        1.202982   -0.002283   -0.037507
      2          6           0       -0.299094   -0.064368   -0.004979
      3          7           0       -1.427975    0.030353    0.013567
      4          1           0        1.624682    0.064924    1.065649
      5          1           0        1.428119    0.953242   -0.463515
      6          1           0        1.519698   -0.830727   -0.442186
 ---------------------------------------------------------------------

 SCF Done:  E(RB2PLYPD3) =  -132.517184766     A.U. after   12 cycles
 E2(B2PLYPD3) =    -0.1787604270D+00 E(B2PLYPD3) =    -0.13269594519304D+03

 The electronic state is 1-A.
 Alpha  occ. eigenvalues --  -14.83504 -10.67121 -10.65598  -1.04842  -0.89110
 Alpha  occ. eigenvalues --   -0.58662  -0.57095  -0.51408  -0.44523  -0.40024
 Alpha  occ. eigenvalues --   -0.39325
 Alpha virt. eigenvalues --    0.03503   0.07728   0.09712   0.10293   0.10911
 Alpha virt. eigenvalues --    0.11949   0.14985   0.16111   0.16380   0.19801
 Alpha virt. eigenvalues --    0.20104   0.24660   0.31628   0.33628   0.35975

 Mulliken charges:
               1
     1  C   -0.099311
     2  C   -0.010265
     3  N   -0.194623
     4  H    0.083941
     5  H    0.109255
     6  H    0.111003
 Sum of Mulliken charges =   0.00000

 Dipole moment (field-independent basis, Debye):
    X=              4.0873    Y=             -0.0273    Z=             -0.0205  Tot=              4.0875
 Quadrupole moment (field-independent basis, Debye-Ang):
   XX=            -21.1569   YY=            -17.4195   ZZ=            -17.8710
   XY=              0.1343   XZ=              0.2179   YZ=              0.0502

 Normal termination of Gaussian 09 at Wed Aug 26 17:36:05 2020.
