 Gaussian 09, Revision D.01,
 Gaussian 09:  ES64L-G09RevD.01 24-Apr-2013

 --------------------
 #p B2PLYPD3/Def2QZVP
 --------------------

 ------------
 cyanomethane
 ------------
 Symbolic Z-matrix:
 Charge =  0 Multiplicity = 1

                         Standard orientation:
 ---------------------------------------------------------------------
 Center     Atomic      Atomic             Coordinates (Angstroms)
 Number     Number       Type             X           Y           Z
 ---------------------------------------------------------------------
      1          6           0       -1.175950   -0.002188    0.048997
      2          6           0        0.294640    0.012450   -0.071838
      3          7           0        1.420418   -0.009150    0.034288
      4          1           0       -1.571061   -0.037848    1.003377
      5          1           0       -1.571778   -0.924369   -0.589431
      6          1           0       -1.512224    0.964696   -0.516920
 ---------------------------------------------------------------------

 SCF Done:  E(RB2PLYPD3) =  -132.520818321     A.U. after   12 cycles
 E2(B2PLYPD3) =    -0.1793913091D+00 E(B2PLYPD3) =    -0.13270020962971D+03

 The electronic state is 1-A.
 Alpha  occ. eigenvalues --  -14.83602 -10.68427 -10.65660  -1.05109  -0.88003
 Alpha  occ. eigenvalues --   -0.59739  -0.53334  -0.51639  -0.44755  -0.39763
 Alpha  occ. eigenvalues --   -0.39281
 Alpha virt. eigenvalues --    0.03449   0.07499   0.07802   0.09946   0.11652
 Alpha virt. eigenvalues --    0.12019   0.15322   0.15451   0.17480   0.19940
 Alpha virt. eigenvalues --    0.20027   0.25620   0.31844   0.32451   0.34973

 Mulliken charges:
               1
     1  C   -0.110753
     2  C    0.002893
     3  N   -0.191908
     4  H    0.111495
     5  H    0.093316
     6  H    0.094957
 Sum of Mulliken charges =   0.00000

 Dipole moment (field-independent basis, Debye):
    X=             -4.0188    Y=              0.0213    Z=             -0.0402  Tot=              4.0191
 Quadrupole moment (field-independent basis, Debye-Ang):
   XX=            -21.2238   YY=            -17.7557   ZZ=            -17.6695
   XY=              0.0897   XZ=             -0.2523   YZ=             -0.0183

 Normal termination of Gaussian 09 at Wed Aug 26 18:45:23 2020.
