 Gaussian 09, Revision D.01,
 Gaussian 09:  ES64L-G09RevD.01 24-Apr-2013

 --------------------
 #p B2PLYPD3/Def2QZVP
 --------------------

 ------------
 cyanomethane
 ------------
 Symbolic Z-matrix:
 Charge =  0 Multiplicity = 1

                         Standard orientation:
 ---------------------------------------------------------------------
 Center     Atomic      Atomic             Coordinates (Angstroms)
 Number     Number       Type             X           Y           Z
 ---------------------------------------------------------------------
      1          6           0        1.173994   -0.009655    0.009200
      2          6           0       -0.286663   -0.027222   -0.002730
      3          7           0       -1.434299    0.024136   -0.002387
      4          1           0        1.690633    0.986639   -0.441074
      5          1           0        1.501356   -0.856768   -0.600826
      6          1           0        1.524114   -0.077562    1.019792
 ---------------------------------------------------------------------

 SCF Done:  E(RB2PLYPD3) =  -132.526126049     A.U. after   12 cycles
 E2(B2PLYPD3) =    -0.1806164382D+00 E(B2PLYPD3) =    -0.13270674248707D+03

 The electronic state is 1-A.
 Alpha  occ. eigenvalues --  -14.84138 -10.68134 -10.66201  -1.04411  -0.88512
 Alpha  occ. eigenvalues --   -0.59372  -0.54603  -0.51396  -0.44848  -0.39331
 Alpha  occ. eigenvalues --   -0.38961
 Alpha virt. eigenvalues --    0.03301   0.06810   0.08335   0.10168   0.11378
 Alpha virt. eigenvalues --    0.11814   0.15339   0.15911   0.17040   0.19976
 Alpha virt. eigenvalues --    0.20155   0.25334   0.31695   0.33573   0.34873

 Mulliken charges:
               1
     1  C   -0.094979
     2  C    0.000050
     3  N   -0.201157
     4  H    0.090290
     5  H    0.102457
     6  H    0.103339
 Sum of Mulliken charges =   0.00000

 Dipole moment (field-independent basis, Debye):
    X=              4.0962    Y=             -0.0632    Z=              0.0284  Tot=              4.0968
 Quadrupole moment (field-independent basis, Debye-Ang):
   XX=            -21.0186   YY=            -17.8087   ZZ=            -17.7984
   XY=              0.2349   XZ=             -0.0072   YZ=              0.0871

 Normal termination of Gaussian 09 at Wed Aug 26 11:24:27 2020.
