 Gaussian 09, Revision D.01,
 Gaussian 09:  ES64L-G09RevD.01 24-Apr-2013

 --------------------
 #p B2PLYPD3/Def2QZVP
 --------------------

 ------------
 cyanomethane
 ------------
 Symbolic Z-matrix:
 Charge =  0 Multiplicity = 1

                         Standard orientation:
 ---------------------------------------------------------------------
 Center     Atomic      Atomic             Coordinates (Angstroms)
 Number     Number       Type             X           Y           Z
 ---------------------------------------------------------------------
      1          6           0       -1.175290   -0.005238    0.005400
      2          6           0        0.300479    0.059733   -0.007966
      3          7           0        1.435677   -0.021726    0.009896
      4          1           0       -1.665327   -0.210587    1.051556
      5          1           0       -1.453761   -0.951456   -0.679458
      6          1           0       -1.681786    0.987151   -0.425975
 ---------------------------------------------------------------------

 SCF Done:  E(RB2PLYPD3) =  -132.515615039     A.U. after   12 cycles
 E2(B2PLYPD3) =    -0.1807937039D+00 E(B2PLYPD3) =    -0.13269640874338D+03

 The electronic state is 1-A.
 Alpha  occ. eigenvalues --  -14.83948 -10.70160 -10.66124  -1.04882  -0.86650
 Alpha  occ. eigenvalues --   -0.58588  -0.51676  -0.51063  -0.44868  -0.39418
 Alpha  occ. eigenvalues --   -0.39207
 Alpha virt. eigenvalues --    0.03033   0.06665   0.06968   0.10201   0.11678
 Alpha virt. eigenvalues --    0.12039   0.15043   0.16111   0.17077   0.19863
 Alpha virt. eigenvalues --    0.20065   0.25166   0.31266   0.32431   0.33422

 Mulliken charges:
               1
     1  C   -0.120037
     2  C    0.006313
     3  N   -0.192713
     4  H    0.102415
     5  H    0.103674
     6  H    0.100348
 Sum of Mulliken charges =   0.00000

 Dipole moment (field-independent basis, Debye):
    X=             -4.0573    Y=              0.0103    Z=              0.0005  Tot=              4.0573
 Quadrupole moment (field-independent basis, Debye-Ang):
   XX=            -21.1289   YY=            -17.7564   ZZ=            -17.9835
   XY=              0.0242   XZ=             -0.2032   YZ=             -0.0071

 Normal termination of Gaussian 09 at Wed Aug 26 21:38:40 2020.
