 Gaussian 09, Revision D.01,
 Gaussian 09:  ES64L-G09RevD.01 24-Apr-2013

 --------------------
 #p B2PLYPD3/Def2QZVP
 --------------------

 ------------
 cyanomethane
 ------------
 Symbolic Z-matrix:
 Charge =  0 Multiplicity = 1

                         Standard orientation:
 ---------------------------------------------------------------------
 Center     Atomic      Atomic             Coordinates (Angstroms)
 Number     Number       Type             X           Y           Z
 ---------------------------------------------------------------------
      1          6           0        1.177167   -0.000561   -0.003931
      2          6           0       -0.281796    0.021526    0.006879
      3          7           0       -1.437366   -0.011462   -0.005069
      4          1           0        1.564366    1.019296   -0.133834
      5          1           0        1.585231   -0.657847   -0.784641
      6          1           0        1.539738   -0.407006    0.936265
 ---------------------------------------------------------------------

 SCF Done:  E(RB2PLYPD3) =  -132.534879603     A.U. after   12 cycles
 E2(B2PLYPD3) =    -0.1807067220D+00 E(B2PLYPD3) =    -0.13271558632520D+03

 The electronic state is 1-A.
 Alpha  occ. eigenvalues --  -14.84293 -10.67298 -10.66369  -1.04081  -0.89034
 Alpha  occ. eigenvalues --   -0.59884  -0.54022  -0.53250  -0.44843  -0.39098
 Alpha  occ. eigenvalues --   -0.38989
 Alpha virt. eigenvalues --    0.03714   0.07615   0.07935   0.10158   0.11345
 Alpha virt. eigenvalues --    0.11575   0.15401   0.16173   0.16708   0.20039
 Alpha virt. eigenvalues --    0.20140   0.25348   0.32650   0.34435   0.34720

 Mulliken charges:
               1
     1  C   -0.081955
     2  C   -0.000026
     3  N   -0.206196
     4  H    0.097477
     5  H    0.095429
     6  H    0.095271
 Sum of Mulliken charges =   0.00000

 Dipole moment (field-independent basis, Debye):
    X=              4.1315    Y=             -0.0019    Z=              0.0200  Tot=              4.1316
 Quadrupole moment (field-independent basis, Debye-Ang):
   XX=            -20.9440   YY=            -17.6903   ZZ=            -17.8857
   XY=             -0.1125   XZ=             -0.0295   YZ=             -0.0097

 Normal termination of Gaussian 09 at Thu Aug 27 00:12:54 2020.
