 Gaussian 09, Revision D.01,
 Gaussian 09:  ES64L-G09RevD.01 24-Apr-2013

 --------------------
 #p B2PLYPD3/Def2QZVP
 --------------------

 ------------
 cyanomethane
 ------------
 Symbolic Z-matrix:
 Charge =  0 Multiplicity = 1

                         Standard orientation:
 ---------------------------------------------------------------------
 Center     Atomic      Atomic             Coordinates (Angstroms)
 Number     Number       Type             X           Y           Z
 ---------------------------------------------------------------------
      1          6           0       -1.177165   -0.003874   -0.017405
      2          6           0        0.278326    0.007277   -0.029699
      3          7           0        1.426273   -0.001924    0.020454
      4          1           0       -1.574357   -0.034234    1.001644
      5          1           0       -1.489351   -0.860606   -0.458103
      6          1           0       -1.527170    0.887886   -0.404093
 ---------------------------------------------------------------------

 SCF Done:  E(RB2PLYPD3) =  -132.528590280     A.U. after   11 cycles
 E2(B2PLYPD3) =    -0.1795706021D+00 E(B2PLYPD3) =    -0.13270816088188D+03

 The electronic state is 1-A.
 Alpha  occ. eigenvalues --  -14.83978 -10.65992 -10.65743  -1.04325  -0.90341
 Alpha  occ. eigenvalues --   -0.60085  -0.56989  -0.53005  -0.44727  -0.39463
 Alpha  occ. eigenvalues --   -0.39003
 Alpha virt. eigenvalues --    0.03877   0.08043   0.09018   0.10204   0.11091
 Alpha virt. eigenvalues --    0.11739   0.15511   0.16393   0.16440   0.19978
 Alpha virt. eigenvalues --    0.20175   0.25393   0.33072   0.34284   0.36254

 Mulliken charges:
               1
     1  C   -0.069614
     2  C   -0.003225
     3  N   -0.204863
     4  H    0.082655
     5  H    0.098697
     6  H    0.096350
 Sum of Mulliken charges =   0.00000

 Dipole moment (field-independent basis, Debye):
    X=             -4.1282    Y=              0.0025    Z=              0.0006  Tot=              4.1282
 Quadrupole moment (field-independent basis, Debye-Ang):
   XX=            -20.8899   YY=            -17.4700   ZZ=            -17.8821
   XY=             -0.0147   XZ=             -0.2492   YZ=              0.0252

 Normal termination of Gaussian 09 at Wed Aug 26 14:13:44 2020.
