 Gaussian 09, Revision D.01,
 Gaussian 09:  ES64L-G09RevD.01 24-Apr-2013

 --------------------
 #p B2PLYPD3/Def2QZVP
 --------------------

 ------------
 cyanomethane
 ------------
 Symbolic Z-matrix:
 Charge =  0 Multiplicity = 1

                         Standard orientation:
 ---------------------------------------------------------------------
 Center     Atomic      Atomic             Coordinates (Angstroms)
 Number     Number       Type             X           Y           Z
 ---------------------------------------------------------------------
      1          6           0        1.158588    0.043779    0.000511
      2          6           0       -0.260325    0.000006   -0.051713
      3          7           0       -1.432889   -0.005398    0.020884
      4          1           0        1.549235    1.026755   -0.047010
      5          1           0        1.616224   -0.728045   -0.772259
      6          1           0        1.475190   -0.523634    0.980293
 ---------------------------------------------------------------------

 SCF Done:  E(RB2PLYPD3) =  -132.518590650     A.U. after   12 cycles
 E2(B2PLYPD3) =    -0.1832408822D+00 E(B2PLYPD3) =    -0.13270183153194D+03

 The electronic state is 1-A.
 Alpha  occ. eigenvalues --  -14.84701 -10.68316 -10.66715  -1.03416  -0.89094
 Alpha  occ. eigenvalues --   -0.60000  -0.55477  -0.50820  -0.44898  -0.38646
 Alpha  occ. eigenvalues --   -0.37684
 Alpha virt. eigenvalues --    0.03302   0.06085   0.07281   0.09972   0.11040
 Alpha virt. eigenvalues --    0.12106   0.15326   0.15495   0.17155   0.20031
 Alpha virt. eigenvalues --    0.20330   0.26024   0.31571   0.32475   0.35213

 Mulliken charges:
               1
     1  C   -0.097754
     2  C    0.008315
     3  N   -0.215343
     4  H    0.115525
     5  H    0.093226
     6  H    0.096031
 Sum of Mulliken charges =   0.00000

 Dipole moment (field-independent basis, Debye):
    X=              4.1250    Y=             -0.0391    Z=              0.0114  Tot=              4.1252
 Quadrupole moment (field-independent basis, Debye-Ang):
   XX=            -21.2095   YY=            -17.4697   ZZ=            -18.2031
   XY=             -0.1632   XZ=              0.1015   YZ=             -0.0300

 Normal termination of Gaussian 09 at Wed Aug 26 22:54:36 2020.
