 Gaussian 09, Revision D.01,
 Gaussian 09:  ES64L-G09RevD.01 24-Apr-2013

 --------------------
 #p B2PLYPD3/Def2QZVP
 --------------------

 ------------
 cyanomethane
 ------------
 Symbolic Z-matrix:
 Charge =  0 Multiplicity = 1

                         Standard orientation:
 ---------------------------------------------------------------------
 Center     Atomic      Atomic             Coordinates (Angstroms)
 Number     Number       Type             X           Y           Z
 ---------------------------------------------------------------------
      1          6           0        1.150202   -0.022860   -0.003293
      2          6           0       -0.280479    0.026360   -0.020269
      3          7           0       -1.418574    0.006748    0.006614
      4          1           0        1.522124   -0.518749   -0.894434
      5          1           0        1.393914   -0.621769    0.898777
      6          1           0        1.795638    1.072282    0.090728
 ---------------------------------------------------------------------

 SCF Done:  E(RB2PLYPD3) =  -132.516410860     A.U. after   12 cycles
 E2(B2PLYPD3) =    -0.1803029911D+00 E(B2PLYPD3) =    -0.13269671385077D+03

 The electronic state is 1-A.
 Alpha  occ. eigenvalues --  -14.83813 -10.68642 -10.65811  -1.04924  -0.88620
 Alpha  occ. eigenvalues --   -0.59393  -0.54256  -0.50803  -0.44845  -0.39351
 Alpha  occ. eigenvalues --   -0.38906
 Alpha virt. eigenvalues --    0.03064   0.06054   0.08133   0.10222   0.11831
 Alpha virt. eigenvalues --    0.12256   0.15368   0.15867   0.17284   0.20000
 Alpha virt. eigenvalues --    0.20127   0.25827   0.30322   0.33985   0.34345

 Mulliken charges:
               1
     1  C   -0.107062
     2  C    0.002465
     3  N   -0.196058
     4  H    0.105358
     5  H    0.106066
     6  H    0.089231
 Sum of Mulliken charges =   0.00000

 Dipole moment (field-independent basis, Debye):
    X=              4.0508    Y=             -0.0929    Z=             -0.0091  Tot=              4.0519
 Quadrupole moment (field-independent basis, Debye-Ang):
   XX=            -21.0579   YY=            -17.8135   ZZ=            -17.7767
   XY=              0.1595   XZ=             -0.0395   YZ=             -0.0053

 Normal termination of Gaussian 09 at Wed Aug 26 20:47:37 2020.
