 Gaussian 09, Revision D.01,
 Gaussian 09:  ES64L-G09RevD.01 24-Apr-2013

 --------------------
 #p B2PLYPD3/Def2QZVP
 --------------------

 ------------
 cyanomethane
 ------------
 Symbolic Z-matrix:
 Charge =  0 Multiplicity = 1

                         Standard orientation:
 ---------------------------------------------------------------------
 Center     Atomic      Atomic             Coordinates (Angstroms)
 Number     Number       Type             X           Y           Z
 ---------------------------------------------------------------------
      1          6           0       -1.185743    0.014760    0.002794
      2          6           0        0.276415    0.034442   -0.009372
      3          7           0        1.437900   -0.023261    0.007925
      4          1           0       -1.485094    0.996797   -0.027222
      5          1           0       -1.600120   -0.543996    0.890411
      6          1           0       -1.524119   -0.585189   -0.879192
 ---------------------------------------------------------------------

 SCF Done:  E(RB2PLYPD3) =  -132.528878596     A.U. after   12 cycles
 E2(B2PLYPD3) =    -0.1813337127D+00 E(B2PLYPD3) =    -0.13271021230884D+03

 The electronic state is 1-A.
 Alpha  occ. eigenvalues --  -14.84389 -10.67273 -10.66460  -1.03744  -0.89299
 Alpha  occ. eigenvalues --   -0.59248  -0.55847  -0.52386  -0.44752  -0.39012
 Alpha  occ. eigenvalues --   -0.38619
 Alpha virt. eigenvalues --    0.03600   0.07154   0.08537   0.10138   0.10966
 Alpha virt. eigenvalues --    0.11648   0.15274   0.15821   0.16511   0.20022
 Alpha virt. eigenvalues --    0.20232   0.25261   0.32506   0.33563   0.35255

 Mulliken charges:
               1
     1  C   -0.090617
     2  C   -0.001038
     3  N   -0.210421
     4  H    0.107966
     5  H    0.096483
     6  H    0.097626
 Sum of Mulliken charges =   0.00000

 Dipole moment (field-independent basis, Debye):
    X=             -4.1279    Y=              0.0134    Z=             -0.0170  Tot=              4.1280
 Quadrupole moment (field-independent basis, Debye-Ang):
   XX=            -21.1343   YY=            -17.5998   ZZ=            -17.9033
   XY=              0.2367   XZ=             -0.0868   YZ=              0.0051

 Normal termination of Gaussian 09 at Wed Aug 26 10:48:59 2020.
