 Gaussian 09, Revision D.01,
 Gaussian 09:  ES64L-G09RevD.01 24-Apr-2013

 --------------------
 #p B2PLYPD3/Def2QZVP
 --------------------

 ------------
 cyanomethane
 ------------
 Symbolic Z-matrix:
 Charge =  0 Multiplicity = 1

                         Standard orientation:
 ---------------------------------------------------------------------
 Center     Atomic      Atomic             Coordinates (Angstroms)
 Number     Number       Type             X           Y           Z
 ---------------------------------------------------------------------
      1          6           0       -1.170770    0.009715    0.007276
      2          6           0        0.272473    0.017510   -0.004389
      3          7           0        1.432262   -0.012971    0.002193
      4          1           0       -1.508023    1.010541   -0.040699
      5          1           0       -1.571249   -0.515146    0.869760
      6          1           0       -1.556781   -0.567944   -0.861735
 ---------------------------------------------------------------------

 SCF Done:  E(RB2PLYPD3) =  -132.533434076     A.U. after   11 cycles
 E2(B2PLYPD3) =    -0.1809401281D+00 E(B2PLYPD3) =    -0.13271437420383D+03

 The electronic state is 1-A.
 Alpha  occ. eigenvalues --  -14.84325 -10.66868 -10.66346  -1.03922  -0.89612
 Alpha  occ. eigenvalues --   -0.60071  -0.55230  -0.52967  -0.44819  -0.38998
 Alpha  occ. eigenvalues --   -0.38708
 Alpha virt. eigenvalues --    0.03755   0.07442   0.08133   0.10134   0.11230
 Alpha virt. eigenvalues --    0.11685   0.15469   0.16164   0.16526   0.20051
 Alpha virt. eigenvalues --    0.20206   0.25596   0.32822   0.34096   0.35215

 Mulliken charges:
               1
     1  C   -0.079999
     2  C   -0.000126
     3  N   -0.209324
     4  H    0.101592
     5  H    0.095723
     6  H    0.092134
 Sum of Mulliken charges =   0.00000

 Dipole moment (field-independent basis, Debye):
    X=             -4.1333    Y=              0.0003    Z=             -0.0050  Tot=              4.1333
 Quadrupole moment (field-independent basis, Debye-Ang):
   XX=            -20.9878   YY=            -17.6220   ZZ=            -17.8896
   XY=              0.1668   XZ=             -0.0159   YZ=             -0.0289

 Normal termination of Gaussian 09 at Thu Aug 27 00:04:09 2020.
