 Gaussian 09, Revision D.01,
 Gaussian 09:  ES64L-G09RevD.01 24-Apr-2013

 --------------------
 #p B2PLYPD3/Def2QZVP
 --------------------

 ------------
 cyanomethane
 ------------
 Symbolic Z-matrix:
 Charge =  0 Multiplicity = 1

                         Standard orientation:
 ---------------------------------------------------------------------
 Center     Atomic      Atomic             Coordinates (Angstroms)
 Number     Number       Type             X           Y           Z
 ---------------------------------------------------------------------
      1          6           0       -1.198609    0.021531    0.003553
      2          6           0        0.280745   -0.030428   -0.053538
      3          7           0        1.442506    0.018336    0.028769
      4          1           0       -1.539584   -0.158275    1.010479
      5          1           0       -1.474095   -0.890833   -0.554634
      6          1           0       -1.576676    0.974135   -0.357320
 ---------------------------------------------------------------------

 SCF Done:  E(RB2PLYPD3) =  -132.529319908     A.U. after   12 cycles
 E2(B2PLYPD3) =    -0.1816933951D+00 E(B2PLYPD3) =    -0.13271101330351D+03

 The electronic state is 1-A.
 Alpha  occ. eigenvalues --  -14.84465 -10.67467 -10.66589  -1.03590  -0.88958
 Alpha  occ. eigenvalues --   -0.59089  -0.55123  -0.52803  -0.44707  -0.38989
 Alpha  occ. eigenvalues --   -0.38595
 Alpha virt. eigenvalues --    0.03618   0.07538   0.08166   0.09998   0.10956
 Alpha virt. eigenvalues --    0.11482   0.15100   0.15392   0.16916   0.20028
 Alpha virt. eigenvalues --    0.20211   0.25152   0.32323   0.33806   0.35178

 Mulliken charges:
               1
     1  C   -0.094507
     2  C    0.001278
     3  N   -0.211800
     4  H    0.098292
     5  H    0.099171
     6  H    0.107565
 Sum of Mulliken charges =   0.00000

 Dipole moment (field-independent basis, Debye):
    X=             -4.1250    Y=             -0.0478    Z=              0.0020  Tot=              4.1252
 Quadrupole moment (field-independent basis, Debye-Ang):
   XX=            -21.2167   YY=            -17.5085   ZZ=            -17.9981
   XY=             -0.1193   XZ=             -0.2752   YZ=             -0.0491

 Normal termination of Gaussian 09 at Wed Aug 26 23:11:34 2020.
