 Gaussian 09, Revision D.01,
 Gaussian 09:  ES64L-G09RevD.01 24-Apr-2013

 --------------------
 #p B2PLYPD3/Def2QZVP
 --------------------

 ------------
 cyanomethane
 ------------
 Symbolic Z-matrix:
 Charge =  0 Multiplicity = 1

                         Standard orientation:
 ---------------------------------------------------------------------
 Center     Atomic      Atomic             Coordinates (Angstroms)
 Number     Number       Type             X           Y           Z
 ---------------------------------------------------------------------
      1          6           0       -1.149187   -0.022559   -0.022616
      2          6           0        0.277375    0.049001    0.030164
      3          7           0        1.419101   -0.014296   -0.011136
      4          1           0       -1.581087   -0.167389    1.000233
      5          1           0       -1.455261   -0.844661   -0.598916
      6          1           0       -1.666486    0.953469   -0.368650
 ---------------------------------------------------------------------

 SCF Done:  E(RB2PLYPD3) =  -132.529576580     A.U. after   11 cycles
 E2(B2PLYPD3) =    -0.1800365779D+00 E(B2PLYPD3) =    -0.13270961315756D+03

 The electronic state is 1-A.
 Alpha  occ. eigenvalues --  -14.83983 -10.67302 -10.65915  -1.04695  -0.89256
 Alpha  occ. eigenvalues --   -0.60428  -0.54668  -0.51975  -0.44900  -0.39361
 Alpha  occ. eigenvalues --   -0.38938
 Alpha virt. eigenvalues --    0.03658   0.07141   0.07805   0.10114   0.11691
 Alpha virt. eigenvalues --    0.11983   0.15581   0.16200   0.17135   0.19960
 Alpha virt. eigenvalues --    0.20096   0.26142   0.32496   0.33575   0.35536

 Mulliken charges:
               1
     1  C   -0.081902
     2  C    0.002707
     3  N   -0.200367
     4  H    0.086667
     5  H    0.103535
     6  H    0.089360
 Sum of Mulliken charges =   0.00000

 Dipole moment (field-independent basis, Debye):
    X=             -4.0854    Y=             -0.0043    Z=              0.0471  Tot=              4.0856
 Quadrupole moment (field-independent basis, Debye-Ang):
   XX=            -20.8545   YY=            -17.6479   ZZ=            -17.9095
   XY=             -0.0174   XZ=             -0.0534   YZ=              0.0921

 Normal termination of Gaussian 09 at Wed Aug 26 21:03:41 2020.
