 Gaussian 09, Revision D.01,
 Gaussian 09:  ES64L-G09RevD.01 24-Apr-2013

 --------------------
 #p B2PLYPD3/Def2QZVP
 --------------------

 ------------
 cyanomethane
 ------------
 Symbolic Z-matrix:
 Charge =  0 Multiplicity = 1

                         Standard orientation:
 ---------------------------------------------------------------------
 Center     Atomic      Atomic             Coordinates (Angstroms)
 Number     Number       Type             X           Y           Z
 ---------------------------------------------------------------------
      1          6           0       -1.172797    0.016734   -0.018337
      2          6           0        0.273107    0.055465   -0.025351
      3          7           0        1.448849   -0.035928    0.022518
      4          1           0       -1.491253    0.929301   -0.198631
      5          1           0       -1.695531   -0.340976    1.011420
      6          1           0       -1.557019   -0.770023   -0.708289
 ---------------------------------------------------------------------

 SCF Done:  E(RB2PLYPD3) =  -132.511847355     A.U. after   12 cycles
 E2(B2PLYPD3) =    -0.1833421506D+00 E(B2PLYPD3) =    -0.13269518950535D+03

 The electronic state is 1-A.
 Alpha  occ. eigenvalues --  -14.85128 -10.67358 -10.67138  -1.03286  -0.89525
 Alpha  occ. eigenvalues --   -0.60475  -0.56396  -0.50603  -0.45086  -0.38783
 Alpha  occ. eigenvalues --   -0.38069
 Alpha virt. eigenvalues --    0.03023   0.05934   0.08334   0.09950   0.10754
 Alpha virt. eigenvalues --    0.11818   0.15428   0.16161   0.16933   0.19960
 Alpha virt. eigenvalues --    0.20421   0.25645   0.31594   0.33175   0.35233

 Mulliken charges:
               1
     1  C   -0.080910
     2  C    0.006159
     3  N   -0.214703
     4  H    0.108540
     5  H    0.083000
     6  H    0.097915
 Sum of Mulliken charges =   0.00000

 Dipole moment (field-independent basis, Debye):
    X=             -4.1401    Y=              0.0346    Z=             -0.0492  Tot=              4.1406
 Quadrupole moment (field-independent basis, Debye-Ang):
   XX=            -20.8253   YY=            -17.7107   ZZ=            -18.1308
   XY=              0.3013   XZ=             -0.2122   YZ=              0.0272

 Normal termination of Gaussian 09 at Wed Aug 26 23:32:36 2020.
