 Gaussian 09, Revision D.01,
 Gaussian 09:  ES64L-G09RevD.01 24-Apr-2013

 --------------------
 #p B2PLYPD3/Def2QZVP
 --------------------

 ------------
 cyanomethane
 ------------
 Symbolic Z-matrix:
 Charge =  0 Multiplicity = 1

                         Standard orientation:
 ---------------------------------------------------------------------
 Center     Atomic      Atomic             Coordinates (Angstroms)
 Number     Number       Type             X           Y           Z
 ---------------------------------------------------------------------
      1          6           0       -1.207415   -0.004367    0.032350
      2          6           0        0.277832    0.033699   -0.021277
      3          7           0        1.450836   -0.011532   -0.005852
      4          1           0       -1.607012   -0.772326   -0.652390
      5          1           0       -1.660947    0.926037   -0.291987
      6          1           0       -1.310390   -0.248981    0.918902
 ---------------------------------------------------------------------

 SCF Done:  E(RB2PLYPD3) =  -132.505868847     A.U. after   13 cycles
 E2(B2PLYPD3) =    -0.1818574816D+00 E(B2PLYPD3) =    -0.13268772632904D+03

 The electronic state is 1-A.
 Alpha  occ. eigenvalues --  -14.84702 -10.66880 -10.65947  -1.03323  -0.90682
 Alpha  occ. eigenvalues --   -0.59315  -0.57898  -0.52904  -0.44707  -0.38916
 Alpha  occ. eigenvalues --   -0.38604
 Alpha virt. eigenvalues --    0.03821   0.07367   0.08946   0.10360   0.10829
 Alpha virt. eigenvalues --    0.11233   0.14990   0.15682   0.16621   0.20107
 Alpha virt. eigenvalues --    0.20247   0.24781   0.31905   0.34145   0.36251

 Mulliken charges:
               1
     1  C   -0.103888
     2  C   -0.001317
     3  N   -0.216645
     4  H    0.092324
     5  H    0.098570
     6  H    0.130957
 Sum of Mulliken charges =   0.00000

 Dipole moment (field-independent basis, Debye):
    X=             -4.1779    Y=              0.0013    Z=              0.0006  Tot=              4.1779
 Quadrupole moment (field-independent basis, Debye-Ang):
   XX=            -20.9331   YY=            -17.7913   ZZ=            -17.7464
   XY=             -0.0072   XZ=              0.3051   YZ=             -0.0962

 Normal termination of Gaussian 09 at Wed Aug 26 16:32:45 2020.
