 Gaussian 09, Revision D.01,
 Gaussian 09:  ES64L-G09RevD.01 24-Apr-2013

 --------------------
 #p B2PLYPD3/Def2QZVP
 --------------------

 ------------
 cyanomethane
 ------------
 Symbolic Z-matrix:
 Charge =  0 Multiplicity = 1

                         Standard orientation:
 ---------------------------------------------------------------------
 Center     Atomic      Atomic             Coordinates (Angstroms)
 Number     Number       Type             X           Y           Z
 ---------------------------------------------------------------------
      1          6           0        1.184445    0.007371   -0.004923
      2          6           0       -0.283666   -0.023046   -0.000812
      3          7           0       -1.433094    0.011251    0.000293
      4          1           0        1.543564    0.987171   -0.305807
      5          1           0        1.549261   -0.761284   -0.677652
      6          1           0        1.534165   -0.210588    1.015820
 ---------------------------------------------------------------------

 SCF Done:  E(RB2PLYPD3) =  -132.535725367     A.U. after   12 cycles
 E2(B2PLYPD3) =    -0.1800731115D+00 E(B2PLYPD3) =    -0.13271579847868D+03

 The electronic state is 1-A.
 Alpha  occ. eigenvalues --  -14.84025 -10.67270 -10.66104  -1.04245  -0.89018
 Alpha  occ. eigenvalues --   -0.59213  -0.54239  -0.53692  -0.44708  -0.39238
 Alpha  occ. eigenvalues --   -0.39137
 Alpha virt. eigenvalues --    0.03742   0.07993   0.08200   0.10197   0.11394
 Alpha virt. eigenvalues --    0.11512   0.15312   0.16004   0.16507   0.20047
 Alpha virt. eigenvalues --    0.20087   0.25172   0.32671   0.34359   0.34851

 Mulliken charges:
               1
     1  C   -0.090025
     2  C   -0.003478
     3  N   -0.203896
     4  H    0.100786
     5  H    0.099211
     6  H    0.097402
 Sum of Mulliken charges =   0.00000

 Dipole moment (field-independent basis, Debye):
    X=              4.1176    Y=             -0.0179    Z=              0.0040  Tot=              4.1176
 Quadrupole moment (field-independent basis, Debye-Ang):
   XX=            -21.0900   YY=            -17.6888   ZZ=            -17.7475
   XY=              0.0560   XZ=              0.0023   YZ=              0.0057

 Normal termination of Gaussian 09 at Thu Aug 27 00:14:06 2020.
