 Gaussian 09, Revision D.01,
 Gaussian 09:  ES64L-G09RevD.01 24-Apr-2013

 --------------------
 #p B2PLYPD3/Def2QZVP
 --------------------

 ------------
 cyanomethane
 ------------
 Symbolic Z-matrix:
 Charge =  0 Multiplicity = 1

                         Standard orientation:
 ---------------------------------------------------------------------
 Center     Atomic      Atomic             Coordinates (Angstroms)
 Number     Number       Type             X           Y           Z
 ---------------------------------------------------------------------
      1          6           0        1.182979   -0.005538   -0.000719
      2          6           0       -0.277199    0.016756    0.000413
      3          7           0       -1.440030   -0.008129   -0.001513
      4          1           0        1.553112    1.003767   -0.195194
      5          1           0        1.562148   -0.682617   -0.753777
      6          1           0        1.530268   -0.331560    0.961403
 ---------------------------------------------------------------------

 SCF Done:  E(RB2PLYPD3) =  -132.534801270     A.U. after   12 cycles
 E2(B2PLYPD3) =    -0.1811146456D+00 E(B2PLYPD3) =    -0.13271591591514D+03

 The electronic state is 1-A.
 Alpha  occ. eigenvalues --  -14.84429 -10.66986 -10.66512  -1.03763  -0.89364
 Alpha  occ. eigenvalues --   -0.59756  -0.54177  -0.54047  -0.44803  -0.38895
 Alpha  occ. eigenvalues --   -0.38867
 Alpha virt. eigenvalues --    0.03779   0.07781   0.07946   0.10166   0.11307
 Alpha virt. eigenvalues --    0.11352   0.15370   0.16084   0.16453   0.20114
 Alpha virt. eigenvalues --    0.20145   0.25291   0.32624   0.34635   0.34818

 Mulliken charges:
               1
     1  C   -0.081839
     2  C   -0.000486
     3  N   -0.210380
     4  H    0.096828
     5  H    0.097897
     6  H    0.097980
 Sum of Mulliken charges =   0.00000

 Dipole moment (field-independent basis, Debye):
    X=              4.1446    Y=              0.0052    Z=              0.0091  Tot=              4.1446
 Quadrupole moment (field-independent basis, Debye-Ang):
   XX=            -21.0060   YY=            -17.7426   ZZ=            -17.7950
   XY=             -0.0558   XZ=             -0.0155   YZ=              0.0005

 Normal termination of Gaussian 09 at Thu Aug 27 00:12:34 2020.
