 Gaussian 09, Revision D.01,
 Gaussian 09:  ES64L-G09RevD.01 24-Apr-2013

 --------------------
 #p B2PLYPD3/Def2QZVP
 --------------------

 ------------
 cyanomethane
 ------------
 Symbolic Z-matrix:
 Charge =  0 Multiplicity = 1

                         Standard orientation:
 ---------------------------------------------------------------------
 Center     Atomic      Atomic             Coordinates (Angstroms)
 Number     Number       Type             X           Y           Z
 ---------------------------------------------------------------------
      1          6           0       -1.172633    0.003485   -0.007545
      2          6           0        0.299550   -0.041495    0.045919
      3          7           0        1.431300    0.009194   -0.020802
      4          1           0       -1.698594   -0.744409   -0.697828
      5          1           0       -1.417913    1.030633   -0.374113
      6          1           0       -1.664092   -0.122521    0.987315
 ---------------------------------------------------------------------

 SCF Done:  E(RB2PLYPD3) =  -132.529688455     A.U. after   12 cycles
 E2(B2PLYPD3) =    -0.1795204189D+00 E(B2PLYPD3) =    -0.13270920887339D+03

 The electronic state is 1-A.
 Alpha  occ. eigenvalues --  -14.83820 -10.68300 -10.65975  -1.05019  -0.87928
 Alpha  occ. eigenvalues --   -0.59640  -0.52916  -0.52068  -0.44861  -0.39627
 Alpha  occ. eigenvalues --   -0.39519
 Alpha virt. eigenvalues --    0.03487   0.07365   0.07949   0.10292   0.11664
 Alpha virt. eigenvalues --    0.11896   0.15162   0.16237   0.17422   0.19911
 Alpha virt. eigenvalues --    0.20055   0.25292   0.32218   0.34092   0.34301

 Mulliken charges:
               1
     1  C   -0.092691
     2  C    0.001659
     3  N   -0.193476
     4  H    0.093430
     5  H    0.099016
     6  H    0.092063
 Sum of Mulliken charges =   0.00000

 Dipole moment (field-independent basis, Debye):
    X=             -4.0934    Y=              0.0121    Z=              0.0346  Tot=              4.0935
 Quadrupole moment (field-independent basis, Debye-Ang):
   XX=            -20.8089   YY=            -17.8098   ZZ=            -17.8707
   XY=              0.0948   XZ=              0.0739   YZ=             -0.0111

 Normal termination of Gaussian 09 at Wed Aug 26 22:52:30 2020.
