 Gaussian 09, Revision D.01,
 Gaussian 09:  ES64L-G09RevD.01 24-Apr-2013

 --------------------
 #p B2PLYPD3/Def2QZVP
 --------------------

 ------------
 cyanomethane
 ------------
 Symbolic Z-matrix:
 Charge =  0 Multiplicity = 1

                         Standard orientation:
 ---------------------------------------------------------------------
 Center     Atomic      Atomic             Coordinates (Angstroms)
 Number     Number       Type             X           Y           Z
 ---------------------------------------------------------------------
      1          6           0       -1.167994    0.007319    0.009278
      2          6           0        0.268914    0.022322   -0.025002
      3          7           0        1.434225   -0.015125    0.009526
      4          1           0       -1.598556   -0.862546   -0.544187
      5          1           0       -1.530927    0.881312   -0.425439
      6          1           0       -1.515615   -0.090738    0.997290
 ---------------------------------------------------------------------

 SCF Done:  E(RB2PLYPD3) =  -132.531200496     A.U. after   11 cycles
 E2(B2PLYPD3) =    -0.1813198080D+00 E(B2PLYPD3) =    -0.13271252030365D+03

 The electronic state is 1-A.
 Alpha  occ. eigenvalues --  -14.84532 -10.66537 -10.66331  -1.03727  -0.90064
 Alpha  occ. eigenvalues --   -0.60594  -0.55461  -0.53306  -0.44889  -0.38859
 Alpha  occ. eigenvalues --   -0.38630
 Alpha virt. eigenvalues --    0.03783   0.07365   0.08173   0.10110   0.11206
 Alpha virt. eigenvalues --    0.11580   0.15588   0.16191   0.16584   0.20085
 Alpha virt. eigenvalues --    0.20226   0.25757   0.32815   0.34436   0.35392

 Mulliken charges:
               1
     1  C   -0.070566
     2  C    0.001621
     3  N   -0.212323
     4  H    0.088786
     5  H    0.096594
     6  H    0.095889
 Sum of Mulliken charges =   0.00000

 Dipole moment (field-independent basis, Debye):
    X=             -4.1461    Y=              0.0214    Z=              0.0012  Tot=              4.1461
 Quadrupole moment (field-independent basis, Debye-Ang):
   XX=            -20.8754   YY=            -17.7492   ZZ=            -17.7977
   XY=              0.1287   XZ=             -0.0354   YZ=             -0.0644

 Normal termination of Gaussian 09 at Wed Aug 26 13:11:07 2020.
