 Gaussian 09, Revision D.01,
 Gaussian 09:  ES64L-G09RevD.01 24-Apr-2013

 --------------------
 #p B2PLYPD3/Def2QZVP
 --------------------

 ------------
 cyanomethane
 ------------
 Symbolic Z-matrix:
 Charge =  0 Multiplicity = 1

                         Standard orientation:
 ---------------------------------------------------------------------
 Center     Atomic      Atomic             Coordinates (Angstroms)
 Number     Number       Type             X           Y           Z
 ---------------------------------------------------------------------
      1          6           0       -1.165326   -0.022533    0.003608
      2          6           0        0.287762    0.044474    0.006256
      3          7           0        1.425835   -0.017359   -0.002149
      4          1           0       -1.584001   -0.198026    0.967118
      5          1           0       -1.518830   -0.764913   -0.671592
      6          1           0       -1.612625    0.952812   -0.339666
 ---------------------------------------------------------------------

 SCF Done:  E(RB2PLYPD3) =  -132.534033030     A.U. after   11 cycles
 E2(B2PLYPD3) =    -0.1792630180D+00 E(B2PLYPD3) =    -0.13271329604825D+03

 The electronic state is 1-A.
 Alpha  occ. eigenvalues --  -14.83886 -10.66848 -10.65907  -1.04803  -0.89219
 Alpha  occ. eigenvalues --   -0.60385  -0.54470  -0.52749  -0.44860  -0.39610
 Alpha  occ. eigenvalues --   -0.39330
 Alpha virt. eigenvalues --    0.03780   0.07837   0.08242   0.10163   0.11556
 Alpha virt. eigenvalues --    0.11783   0.15549   0.16348   0.17100   0.19991
 Alpha virt. eigenvalues --    0.20018   0.25607   0.32721   0.34459   0.35387

 Mulliken charges:
               1
     1  C   -0.073893
     2  C   -0.000454
     3  N   -0.197823
     4  H    0.092811
     5  H    0.095397
     6  H    0.083961
 Sum of Mulliken charges =   0.00000

 Dipole moment (field-independent basis, Debye):
    X=             -4.1021    Y=              0.0196    Z=              0.0040  Tot=              4.1021
 Quadrupole moment (field-independent basis, Debye-Ang):
   XX=            -20.7771   YY=            -17.7851   ZZ=            -17.7343
   XY=              0.0519   XZ=             -0.0147   YZ=              0.0461

 Normal termination of Gaussian 09 at Wed Aug 26 15:19:03 2020.
