 Gaussian 09, Revision D.01,
 Gaussian 09:  ES64L-G09RevD.01 24-Apr-2013

 --------------------
 #p B2PLYPD3/Def2QZVP
 --------------------

 ------------
 cyanomethane
 ------------
 Symbolic Z-matrix:
 Charge =  0 Multiplicity = 1

                         Standard orientation:
 ---------------------------------------------------------------------
 Center     Atomic      Atomic             Coordinates (Angstroms)
 Number     Number       Type             X           Y           Z
 ---------------------------------------------------------------------
      1          6           0        1.184763    0.001426   -0.001073
      2          6           0       -0.275704   -0.003577   -0.017550
      3          7           0       -1.438359    0.001904    0.010147
      4          1           0        1.539521    1.012571   -0.069527
      5          1           0        1.526772   -0.578849   -0.813749
      6          1           0        1.547867   -0.434141    0.923983
 ---------------------------------------------------------------------

 SCF Done:  E(RB2PLYPD3) =  -132.534297130     A.U. after   11 cycles
 E2(B2PLYPD3) =    -0.1809590055D+00 E(B2PLYPD3) =    -0.13271525613547D+03

 The electronic state is 1-A.
 Alpha  occ. eigenvalues --  -14.84386 -10.66656 -10.66457  -1.03747  -0.89652
 Alpha  occ. eigenvalues --   -0.59689  -0.54923  -0.54029  -0.44765  -0.38932
 Alpha  occ. eigenvalues --   -0.38844
 Alpha virt. eigenvalues --    0.03820   0.07844   0.08241   0.10179   0.11203
 Alpha virt. eigenvalues --    0.11378   0.15380   0.16057   0.16355   0.20110
 Alpha virt. eigenvalues --    0.20162   0.25274   0.32722   0.34661   0.35079

 Mulliken charges:
               1
     1  C   -0.080309
     2  C   -0.001617
     3  N   -0.210950
     4  H    0.098122
     5  H    0.098724
     6  H    0.096031
 Sum of Mulliken charges =   0.00000

 Dipole moment (field-independent basis, Debye):
    X=              4.1457    Y=             -0.0067    Z=             -0.0119  Tot=              4.1457
 Quadrupole moment (field-independent basis, Debye-Ang):
   XX=            -21.0218   YY=            -17.7151   ZZ=            -17.7651
   XY=              0.0025   XZ=              0.0753   YZ=              0.0247

 Normal termination of Gaussian 09 at Wed Aug 26 23:58:37 2020.
