 Gaussian 09, Revision D.01,
 Gaussian 09:  ES64L-G09RevD.01 24-Apr-2013

 --------------------
 #p B2PLYPD3/Def2QZVP
 --------------------

 ------------
 cyanomethane
 ------------
 Symbolic Z-matrix:
 Charge =  0 Multiplicity = 1

                         Standard orientation:
 ---------------------------------------------------------------------
 Center     Atomic      Atomic             Coordinates (Angstroms)
 Number     Number       Type             X           Y           Z
 ---------------------------------------------------------------------
      1          6           0       -1.185520    0.008217   -0.001650
      2          6           0        0.286988   -0.003304   -0.033022
      3          7           0        1.434874    0.006101    0.019032
      4          1           0       -1.559053   -0.201139    0.997719
      5          1           0       -1.484360   -0.824438   -0.607025
      6          1           0       -1.609512    0.953391   -0.315883
 ---------------------------------------------------------------------

 SCF Done:  E(RB2PLYPD3) =  -132.534169247     A.U. after   12 cycles
 E2(B2PLYPD3) =    -0.1799708838D+00 E(B2PLYPD3) =    -0.13271414013093D+03

 The electronic state is 1-A.
 Alpha  occ. eigenvalues --  -14.84053 -10.66993 -10.66153  -1.04306  -0.89158
 Alpha  occ. eigenvalues --   -0.59584  -0.54778  -0.53149  -0.44749  -0.39384
 Alpha  occ. eigenvalues --   -0.39137
 Alpha virt. eigenvalues --    0.03761   0.07870   0.08492   0.10189   0.11249
 Alpha virt. eigenvalues --    0.11616   0.15327   0.15884   0.16971   0.19993
 Alpha virt. eigenvalues --    0.20129   0.25132   0.32713   0.34357   0.35251

 Mulliken charges:
               1
     1  C   -0.083043
     2  C   -0.002432
     3  N   -0.203353
     4  H    0.092507
     5  H    0.097490
     6  H    0.098830
 Sum of Mulliken charges =   0.00000

 Dipole moment (field-independent basis, Debye):
    X=             -4.1258    Y=             -0.0311    Z=             -0.0062  Tot=              4.1260
 Quadrupole moment (field-independent basis, Debye-Ang):
   XX=            -20.9652   YY=            -17.5933   ZZ=            -17.8870
   XY=             -0.0721   XZ=             -0.1909   YZ=              0.0079

 Normal termination of Gaussian 09 at Wed Aug 26 12:41:49 2020.
