 Gaussian 09, Revision D.01,
 Gaussian 09:  ES64L-G09RevD.01 24-Apr-2013

 --------------------
 #p B2PLYPD3/Def2QZVP
 --------------------

 ------------
 cyanomethane
 ------------
 Symbolic Z-matrix:
 Charge =  0 Multiplicity = 1

                         Standard orientation:
 ---------------------------------------------------------------------
 Center     Atomic      Atomic             Coordinates (Angstroms)
 Number     Number       Type             X           Y           Z
 ---------------------------------------------------------------------
      1          6           0       -1.174947   -0.011088   -0.033009
      2          6           0        0.250029    0.028693    0.026494
      3          7           0        1.425020   -0.015009   -0.011083
      4          1           0       -1.461577    1.014730   -0.343304
      5          1           0       -1.471606   -0.175822    1.094807
      6          1           0       -1.492444   -0.839474   -0.634839
 ---------------------------------------------------------------------

 SCF Done:  E(RB2PLYPD3) =  -132.522562568     A.U. after   12 cycles
 E2(B2PLYPD3) =    -0.1829445400D+00 E(B2PLYPD3) =    -0.13270550710838D+03

 The electronic state is 1-A.
 Alpha  occ. eigenvalues --  -14.84436 -10.67900 -10.66479  -1.03187  -0.89637
 Alpha  occ. eigenvalues --   -0.58769  -0.55594  -0.52884  -0.44582  -0.38333
 Alpha  occ. eigenvalues --   -0.37819
 Alpha virt. eigenvalues --    0.03497   0.07001   0.07599   0.09943   0.11180
 Alpha virt. eigenvalues --    0.11679   0.14825   0.15318   0.16199   0.20178
 Alpha virt. eigenvalues --    0.20331   0.25812   0.31592   0.33032   0.35039

 Mulliken charges:
               1
     1  C   -0.116783
     2  C    0.006078
     3  N   -0.220801
     4  H    0.113223
     5  H    0.101009
     6  H    0.117273
 Sum of Mulliken charges =   0.00000

 Dipole moment (field-independent basis, Debye):
    X=             -4.0937    Y=              0.0168    Z=              0.0218  Tot=              4.0938
 Quadrupole moment (field-independent basis, Debye-Ang):
   XX=            -21.6960   YY=            -17.5386   ZZ=            -17.7865
   XY=              0.1036   XZ=              0.0412   YZ=              0.0576

 Normal termination of Gaussian 09 at Wed Aug 26 23:49:36 2020.
