 Gaussian 09, Revision D.01,
 Gaussian 09:  ES64L-G09RevD.01 24-Apr-2013

 --------------------
 #p B2PLYPD3/Def2QZVP
 --------------------

 ------------
 cyanomethane
 ------------
 Symbolic Z-matrix:
 Charge =  0 Multiplicity = 1

                         Standard orientation:
 ---------------------------------------------------------------------
 Center     Atomic      Atomic             Coordinates (Angstroms)
 Number     Number       Type             X           Y           Z
 ---------------------------------------------------------------------
      1          6           0        1.180948   -0.000762   -0.014459
      2          6           0       -0.281290   -0.016388   -0.024795
      3          7           0       -1.442646    0.010041    0.019449
      4          1           0        1.501804   -0.573976   -0.802890
      5          1           0        1.619070   -0.434185    0.951738
      6          1           0        1.579702    1.040775   -0.049464
 ---------------------------------------------------------------------

 SCF Done:  E(RB2PLYPD3) =  -132.528655524     A.U. after   12 cycles
 E2(B2PLYPD3) =    -0.1813634472D+00 E(B2PLYPD3) =    -0.13271001897115D+03

 The electronic state is 1-A.
 Alpha  occ. eigenvalues --  -14.84510 -10.67368 -10.66592  -1.03842  -0.89103
 Alpha  occ. eigenvalues --   -0.59816  -0.55258  -0.52050  -0.44883  -0.39086
 Alpha  occ. eigenvalues --   -0.38723
 Alpha virt. eigenvalues --    0.03561   0.06958   0.08368   0.10146   0.11061
 Alpha virt. eigenvalues --    0.11653   0.15347   0.16136   0.16709   0.20007
 Alpha virt. eigenvalues --    0.20214   0.25281   0.32355   0.33690   0.35175

 Mulliken charges:
               1
     1  C   -0.082707
     2  C    0.000918
     3  N   -0.208795
     4  H    0.103877
     5  H    0.090131
     6  H    0.096575
 Sum of Mulliken charges =   0.00000

 Dipole moment (field-independent basis, Debye):
    X=              4.1376    Y=             -0.0156    Z=             -0.0275  Tot=              4.1377
 Quadrupole moment (field-independent basis, Debye-Ang):
   XX=            -20.9373   YY=            -17.7888   ZZ=            -17.8504
   XY=              0.0723   XZ=              0.1977   YZ=              0.1056

 Normal termination of Gaussian 09 at Wed Aug 26 11:22:50 2020.
