 Gaussian 09, Revision D.01,
 Gaussian 09:  ES64L-G09RevD.01 24-Apr-2013

 --------------------
 #p B2PLYPD3/Def2QZVP
 --------------------

 ------------
 cyanomethane
 ------------
 Symbolic Z-matrix:
 Charge =  0 Multiplicity = 1

                         Standard orientation:
 ---------------------------------------------------------------------
 Center     Atomic      Atomic             Coordinates (Angstroms)
 Number     Number       Type             X           Y           Z
 ---------------------------------------------------------------------
      1          6           0        1.178956   -0.000445    0.000355
      2          6           0       -0.273843   -0.014098    0.014340
      3          7           0       -1.431130    0.010691   -0.008604
      4          1           0        1.512670   -0.030655    0.997708
      5          1           0        1.575348    0.904670   -0.481949
      6          1           0        1.499207   -0.861596   -0.543698
 ---------------------------------------------------------------------

 SCF Done:  E(RB2PLYPD3) =  -132.534037876     A.U. after   12 cycles
 E2(B2PLYPD3) =    -0.1805349566D+00 E(B2PLYPD3) =    -0.13271457283238D+03

 The electronic state is 1-A.
 Alpha  occ. eigenvalues --  -14.84197 -10.66601 -10.66232  -1.03959  -0.89773
 Alpha  occ. eigenvalues --   -0.59625  -0.55141  -0.53917  -0.44728  -0.38997
 Alpha  occ. eigenvalues --   -0.38911
 Alpha virt. eigenvalues --    0.03809   0.07791   0.08451   0.10169   0.11304
 Alpha virt. eigenvalues --    0.11468   0.15440   0.15853   0.16522   0.20108
 Alpha virt. eigenvalues --    0.20145   0.25426   0.32858   0.34596   0.35047

 Mulliken charges:
               1
     1  C   -0.083428
     2  C   -0.002435
     3  N   -0.208954
     4  H    0.099276
     5  H    0.096003
     6  H    0.099539
 Sum of Mulliken charges =   0.00000

 Dipole moment (field-independent basis, Debye):
    X=              4.1288    Y=             -0.0195    Z=              0.0177  Tot=              4.1288
 Quadrupole moment (field-independent basis, Debye-Ang):
   XX=            -21.0628   YY=            -17.7052   ZZ=            -17.7047
   XY=              0.1072   XZ=             -0.0519   YZ=              0.0281

 Normal termination of Gaussian 09 at Thu Aug 27 00:06:39 2020.
