 Gaussian 09, Revision D.01,
 Gaussian 09:  ES64L-G09RevD.01 24-Apr-2013

 --------------------
 #p B2PLYPD3/Def2QZVP
 --------------------

 ------------
 cyanomethane
 ------------
 Symbolic Z-matrix:
 Charge =  0 Multiplicity = 1

                         Standard orientation:
 ---------------------------------------------------------------------
 Center     Atomic      Atomic             Coordinates (Angstroms)
 Number     Number       Type             X           Y           Z
 ---------------------------------------------------------------------
      1          6           0        1.170466   -0.027612    0.022759
      2          6           0       -0.300160   -0.057781   -0.000307
      3          7           0       -1.440118    0.047646   -0.004697
      4          1           0        1.800026    1.053647   -0.318173
      5          1           0        1.508190   -0.709148   -0.692399
      6          1           0        1.550772   -0.165658    0.908742
 ---------------------------------------------------------------------

 SCF Done:  E(RB2PLYPD3) =  -132.500171781     A.U. after   12 cycles
 E2(B2PLYPD3) =    -0.1805188153D+00 E(B2PLYPD3) =    -0.13268069059654D+03

 The electronic state is 1-A.
 Alpha  occ. eigenvalues --  -14.84371 -10.67381 -10.66412  -1.04801  -0.89189
 Alpha  occ. eigenvalues --   -0.60966  -0.56303  -0.49306  -0.45128  -0.39946
 Alpha  occ. eigenvalues --   -0.38882
 Alpha virt. eigenvalues --    0.02276   0.06759   0.09079   0.10100   0.11047
 Alpha virt. eigenvalues --    0.11976   0.15484   0.16356   0.17653   0.19807
 Alpha virt. eigenvalues --    0.20424   0.25279   0.29728   0.33545   0.36166

 Mulliken charges:
               1
     1  C   -0.083824
     2  C    0.006288
     3  N   -0.196298
     4  H    0.073251
     5  H    0.096845
     6  H    0.103737
 Sum of Mulliken charges =   0.00000

 Dipole moment (field-independent basis, Debye):
    X=              4.0706    Y=             -0.1676    Z=              0.0433  Tot=              4.0743
 Quadrupole moment (field-independent basis, Debye-Ang):
   XX=            -20.5781   YY=            -18.0195   ZZ=            -17.8286
   XY=              0.3186   XZ=              0.0094   YZ=              0.1366

 Normal termination of Gaussian 09 at Wed Aug 26 23:32:09 2020.
