 Gaussian 09, Revision D.01,
 Gaussian 09:  ES64L-G09RevD.01 24-Apr-2013

 --------------------
 #p B2PLYPD3/Def2QZVP
 --------------------

 ------------
 cyanomethane
 ------------
 Symbolic Z-matrix:
 Charge =  0 Multiplicity = 1

                         Standard orientation:
 ---------------------------------------------------------------------
 Center     Atomic      Atomic             Coordinates (Angstroms)
 Number     Number       Type             X           Y           Z
 ---------------------------------------------------------------------
      1          6           0        1.173536   -0.007216   -0.013798
      2          6           0       -0.270111    0.029979    0.023292
      3          7           0       -1.443426   -0.011821   -0.005357
      4          1           0        1.623666   -0.278641    0.938610
      5          1           0        1.582193    0.957861   -0.263773
      6          1           0        1.477568   -0.733058   -0.694301
 ---------------------------------------------------------------------

 SCF Done:  E(RB2PLYPD3) =  -132.531053826     A.U. after   11 cycles
 E2(B2PLYPD3) =    -0.1820303656D+00 E(B2PLYPD3) =    -0.13271308419160D+03

 The electronic state is 1-A.
 Alpha  occ. eigenvalues --  -14.84811 -10.66871 -10.66401  -1.03423  -0.89941
 Alpha  occ. eigenvalues --   -0.60770  -0.55168  -0.53372  -0.44951  -0.38704
 Alpha  occ. eigenvalues --   -0.38541
 Alpha virt. eigenvalues --    0.03824   0.07372   0.07752   0.10147   0.11186
 Alpha virt. eigenvalues --    0.11427   0.15471   0.16416   0.16473   0.20127
 Alpha virt. eigenvalues --    0.20226   0.25667   0.32636   0.34635   0.35355

 Mulliken charges:
               1
     1  C   -0.066669
     2  C    0.003986
     3  N   -0.215442
     4  H    0.087183
     5  H    0.092867
     6  H    0.098075
 Sum of Mulliken charges =   0.00000

 Dipole moment (field-independent basis, Debye):
    X=              4.1695    Y=             -0.0001    Z=              0.0094  Tot=              4.1695
 Quadrupole moment (field-independent basis, Debye-Ang):
   XX=            -20.7975   YY=            -17.7373   ZZ=            -17.9276
   XY=             -0.0400   XZ=              0.0775   YZ=              0.0437

 Normal termination of Gaussian 09 at Wed Aug 26 12:03:35 2020.
