 Gaussian 09, Revision D.01,
 Gaussian 09:  ES64L-G09RevD.01 24-Apr-2013

 --------------------
 #p B2PLYPD3/Def2QZVP
 --------------------

 ------------
 cyanomethane
 ------------
 Symbolic Z-matrix:
 Charge =  0 Multiplicity = 1

                         Standard orientation:
 ---------------------------------------------------------------------
 Center     Atomic      Atomic             Coordinates (Angstroms)
 Number     Number       Type             X           Y           Z
 ---------------------------------------------------------------------
      1          6           0        1.184123    0.010069    0.002458
      2          6           0       -0.276129   -0.007274   -0.035191
      3          7           0       -1.441123   -0.002242    0.015816
      4          1           0        1.480170    1.042425    0.016934
      5          1           0        1.609179   -0.531609   -0.816936
      6          1           0        1.550550   -0.511893    0.885692
 ---------------------------------------------------------------------

 SCF Done:  E(RB2PLYPD3) =  -132.533155796     A.U. after   12 cycles
 E2(B2PLYPD3) =    -0.1813791652D+00 E(B2PLYPD3) =    -0.13271453496086D+03

 The electronic state is 1-A.
 Alpha  occ. eigenvalues --  -14.84512 -10.66869 -10.66601  -1.03648  -0.89478
 Alpha  occ. eigenvalues --   -0.59917  -0.55052  -0.53298  -0.44810  -0.38901
 Alpha  occ. eigenvalues --   -0.38716
 Alpha virt. eigenvalues --    0.03755   0.07636   0.08057   0.10186   0.11111
 Alpha virt. eigenvalues --    0.11467   0.15273   0.16261   0.16312   0.20077
 Alpha virt. eigenvalues --    0.20193   0.25335   0.32633   0.34431   0.35082

 Mulliken charges:
               1
     1  C   -0.079632
     2  C    0.000621
     3  N   -0.212087
     4  H    0.102653
     5  H    0.094247
     6  H    0.094198
 Sum of Mulliken charges =   0.00000

 Dipole moment (field-independent basis, Debye):
    X=              4.1508    Y=             -0.0181    Z=             -0.0130  Tot=              4.1509
 Quadrupole moment (field-independent basis, Debye-Ang):
   XX=            -20.9838   YY=            -17.6185   ZZ=            -17.9414
   XY=             -0.1613   XZ=              0.0648   YZ=              0.0130

 Normal termination of Gaussian 09 at Wed Aug 26 16:17:59 2020.
