 Gaussian 09, Revision D.01,
 Gaussian 09:  ES64L-G09RevD.01 24-Apr-2013

 --------------------
 #p B2PLYPD3/Def2QZVP
 --------------------

 ------------
 cyanomethane
 ------------
 Symbolic Z-matrix:
 Charge =  0 Multiplicity = 1

                         Standard orientation:
 ---------------------------------------------------------------------
 Center     Atomic      Atomic             Coordinates (Angstroms)
 Number     Number       Type             X           Y           Z
 ---------------------------------------------------------------------
      1          6           0        1.182741   -0.014446    0.004033
      2          6           0       -0.282190    0.010673   -0.021636
      3          7           0       -1.437533   -0.002989    0.011845
      4          1           0        1.563923   -0.084020    1.018281
      5          1           0        1.561508    0.952097   -0.412771
      6          1           0        1.533992   -0.824517   -0.582810
 ---------------------------------------------------------------------

 SCF Done:  E(RB2PLYPD3) =  -132.534285833     A.U. after   11 cycles
 E2(B2PLYPD3) =    -0.1805907264D+00 E(B2PLYPD3) =    -0.13271487655977D+03

 The electronic state is 1-A.
 Alpha  occ. eigenvalues --  -14.84250 -10.67176 -10.66335  -1.04050  -0.89123
 Alpha  occ. eigenvalues --   -0.59639  -0.54684  -0.53110  -0.44790  -0.39176
 Alpha  occ. eigenvalues --   -0.38952
 Alpha virt. eigenvalues --    0.03739   0.07689   0.08170   0.10171   0.11270
 Alpha virt. eigenvalues --    0.11535   0.15354   0.16059   0.16623   0.20055
 Alpha virt. eigenvalues --    0.20120   0.25240   0.32555   0.34161   0.35158

 Mulliken charges:
               1
     1  C   -0.084045
     2  C   -0.001159
     3  N   -0.206577
     4  H    0.097464
     5  H    0.093282
     6  H    0.101035
 Sum of Mulliken charges =   0.00000

 Dipole moment (field-independent basis, Debye):
    X=              4.1303    Y=              0.0052    Z=             -0.0104  Tot=              4.1303
 Quadrupole moment (field-independent basis, Debye-Ang):
   XX=            -21.0026   YY=            -17.7405   ZZ=            -17.7825
   XY=              0.0094   XZ=              0.0966   YZ=              0.0561

 Normal termination of Gaussian 09 at Thu Aug 27 00:10:20 2020.
