 Gaussian 09, Revision D.01,
 Gaussian 09:  ES64L-G09RevD.01 24-Apr-2013

 --------------------
 #p B2PLYPD3/Def2QZVP
 --------------------

 ------------
 cyanomethane
 ------------
 Symbolic Z-matrix:
 Charge =  0 Multiplicity = 1

                         Standard orientation:
 ---------------------------------------------------------------------
 Center     Atomic      Atomic             Coordinates (Angstroms)
 Number     Number       Type             X           Y           Z
 ---------------------------------------------------------------------
      1          6           0        1.195023    0.016535   -0.018989
      2          6           0       -0.285320    0.045711   -0.032515
      3          7           0       -1.437516   -0.033136    0.029496
      4          1           0        1.701672   -0.185184    0.976094
      5          1           0        1.384650    0.936188   -0.317851
      6          1           0        1.518067   -0.892525   -0.555692
 ---------------------------------------------------------------------

 SCF Done:  E(RB2PLYPD3) =  -132.514427834     A.U. after   12 cycles
 E2(B2PLYPD3) =    -0.1810430825D+00 E(B2PLYPD3) =    -0.13269547091621D+03

 The electronic state is 1-A.
 Alpha  occ. eigenvalues --  -14.84263 -10.66920 -10.66334  -1.04014  -0.89616
 Alpha  occ. eigenvalues --   -0.59486  -0.57451  -0.50817  -0.44711  -0.39336
 Alpha  occ. eigenvalues --   -0.38670
 Alpha virt. eigenvalues --    0.03486   0.06843   0.09317   0.10038   0.10719
 Alpha virt. eigenvalues --    0.11877   0.14959   0.15923   0.16969   0.19862
 Alpha virt. eigenvalues --    0.20305   0.25006   0.32294   0.33278   0.36068

 Mulliken charges:
               1
     1  C   -0.090058
     2  C   -0.001828
     3  N   -0.207053
     4  H    0.084504
     5  H    0.112695
     6  H    0.101740
 Sum of Mulliken charges =   0.00000

 Dipole moment (field-independent basis, Debye):
    X=              4.1178    Y=              0.0062    Z=             -0.0065  Tot=              4.1178
 Quadrupole moment (field-independent basis, Debye-Ang):
   XX=            -21.0261   YY=            -17.3565   ZZ=            -18.1743
   XY=             -0.4058   XZ=              0.4328   YZ=             -0.0455

 Normal termination of Gaussian 09 at Wed Aug 26 21:29:37 2020.
