 Gaussian 09, Revision D.01,
 Gaussian 09:  ES64L-G09RevD.01 24-Apr-2013

 --------------------
 #p B2PLYPD3/Def2QZVP
 --------------------

 ------------
 cyanomethane
 ------------
 Symbolic Z-matrix:
 Charge =  0 Multiplicity = 1

                         Standard orientation:
 ---------------------------------------------------------------------
 Center     Atomic      Atomic             Coordinates (Angstroms)
 Number     Number       Type             X           Y           Z
 ---------------------------------------------------------------------
      1          6           0        1.166024   -0.008894   -0.006327
      2          6           0       -0.274576    0.013864   -0.004874
      3          7           0       -1.430491   -0.004009    0.005146
      4          1           0        1.582317    1.023510   -0.112897
      5          1           0        1.515721   -0.621673   -0.797477
      6          1           0        1.566709   -0.403592    0.941561
 ---------------------------------------------------------------------

 SCF Done:  E(RB2PLYPD3) =  -132.534153093     A.U. after   11 cycles
 E2(B2PLYPD3) =    -0.1806729621D+00 E(B2PLYPD3) =    -0.13271482605558D+03

 The electronic state is 1-A.
 Alpha  occ. eigenvalues --  -14.84247 -10.67057 -10.66258  -1.04114  -0.89427
 Alpha  occ. eigenvalues --   -0.60170  -0.54516  -0.53103  -0.44847  -0.39040
 Alpha  occ. eigenvalues --   -0.38861
 Alpha virt. eigenvalues --    0.03742   0.07445   0.07967   0.10141   0.11444
 Alpha virt. eigenvalues --    0.11654   0.15530   0.16373   0.16465   0.20072
 Alpha virt. eigenvalues --    0.20138   0.25658   0.32762   0.34197   0.34985

 Mulliken charges:
               1
     1  C   -0.080643
     2  C    0.000233
     3  N   -0.206828
     4  H    0.093414
     5  H    0.099808
     6  H    0.094016
 Sum of Mulliken charges =   0.00000

 Dipole moment (field-independent basis, Debye):
    X=              4.1248    Y=             -0.0051    Z=             -0.0036  Tot=              4.1248
 Quadrupole moment (field-independent basis, Debye-Ang):
   XX=            -20.9493   YY=            -17.7440   ZZ=            -17.7885
   XY=             -0.0054   XZ=              0.0740   YZ=              0.0485

 Normal termination of Gaussian 09 at Thu Aug 27 00:11:46 2020.
