 Gaussian 09, Revision D.01,
 Gaussian 09:  ES64L-G09RevD.01 24-Apr-2013

 --------------------
 #p B2PLYPD3/Def2QZVP
 --------------------

 ------------
 cyanomethane
 ------------
 Symbolic Z-matrix:
 Charge =  0 Multiplicity = 1

                         Standard orientation:
 ---------------------------------------------------------------------
 Center     Atomic      Atomic             Coordinates (Angstroms)
 Number     Number       Type             X           Y           Z
 ---------------------------------------------------------------------
      1          6           0        1.184190   -0.003469   -0.007168
      2          6           0       -0.282734   -0.015388   -0.004491
      3          7           0       -1.432768    0.005370    0.006493
      4          1           0        1.592885   -0.169964    1.018144
      5          1           0        1.486477    1.008792   -0.330791
      6          1           0        1.541276   -0.763276   -0.662852
 ---------------------------------------------------------------------

 SCF Done:  E(RB2PLYPD3) =  -132.534458978     A.U. after   12 cycles
 E2(B2PLYPD3) =    -0.1801749319D+00 E(B2PLYPD3) =    -0.13271463390979D+03

 The electronic state is 1-A.
 Alpha  occ. eigenvalues --  -14.84018 -10.67413 -10.66105  -1.04227  -0.88974
 Alpha  occ. eigenvalues --   -0.59158  -0.54658  -0.53126  -0.44695  -0.39248
 Alpha  occ. eigenvalues --   -0.39046
 Alpha virt. eigenvalues --    0.03704   0.07747   0.08331   0.10215   0.11329
 Alpha virt. eigenvalues --    0.11615   0.15262   0.16030   0.16437   0.20032
 Alpha virt. eigenvalues --    0.20113   0.25155   0.32584   0.34048   0.34925

 Mulliken charges:
               1
     1  C   -0.093015
     2  C   -0.003257
     3  N   -0.204156
     4  H    0.096390
     5  H    0.100933
     6  H    0.103105
 Sum of Mulliken charges =   0.00000

 Dipole moment (field-independent basis, Debye):
    X=              4.1164    Y=             -0.0031    Z=             -0.0080  Tot=              4.1164
 Quadrupole moment (field-independent basis, Debye-Ang):
   XX=            -21.1236   YY=            -17.6656   ZZ=            -17.7740
   XY=             -0.0147   XZ=              0.1023   YZ=              0.0424

 Normal termination of Gaussian 09 at Thu Aug 27 00:12:30 2020.
