 Gaussian 09, Revision D.01,
 Gaussian 09:  ES64L-G09RevD.01 24-Apr-2013

 --------------------
 #p B2PLYPD3/Def2QZVP
 --------------------

 ------------
 cyanomethane
 ------------
 Symbolic Z-matrix:
 Charge =  0 Multiplicity = 1

                         Standard orientation:
 ---------------------------------------------------------------------
 Center     Atomic      Atomic             Coordinates (Angstroms)
 Number     Number       Type             X           Y           Z
 ---------------------------------------------------------------------
      1          6           0       -1.179544    0.016806   -0.005269
      2          6           0        0.265283    0.020503   -0.010552
      3          7           0        1.429170   -0.017667    0.009316
      4          1           0       -1.422754    0.931946   -0.373693
      5          1           0       -1.560681   -0.175274    1.022479
      6          1           0       -1.535186   -0.856859   -0.619072
 ---------------------------------------------------------------------

 SCF Done:  E(RB2PLYPD3) =  -132.527133087     A.U. after   12 cycles
 E2(B2PLYPD3) =    -0.1813751509D+00 E(B2PLYPD3) =    -0.13270850823840D+03

 The electronic state is 1-A.
 Alpha  occ. eigenvalues --  -14.84289 -10.66924 -10.66311  -1.03668  -0.89919
 Alpha  occ. eigenvalues --   -0.59073  -0.56490  -0.52859  -0.44662  -0.38828
 Alpha  occ. eigenvalues --   -0.38465
 Alpha virt. eigenvalues --    0.03680   0.07194   0.08632   0.10133   0.11043
 Alpha virt. eigenvalues --    0.11653   0.15259   0.15758   0.16196   0.20089
 Alpha virt. eigenvalues --    0.20251   0.25491   0.32606   0.33568   0.35361

 Mulliken charges:
               1
     1  C   -0.095338
     2  C   -0.001675
     3  N   -0.213281
     4  H    0.111514
     5  H    0.099064
     6  H    0.099715
 Sum of Mulliken charges =   0.00000

 Dipole moment (field-independent basis, Debye):
    X=             -4.1170    Y=              0.0093    Z=             -0.0018  Tot=              4.1170
 Quadrupole moment (field-independent basis, Debye-Ang):
   XX=            -21.2824   YY=            -17.5635   ZZ=            -17.8069
   XY=              0.2248   XZ=             -0.1351   YZ=             -0.0776

 Normal termination of Gaussian 09 at Wed Aug 26 13:44:59 2020.
