 Gaussian 09, Revision D.01,
 Gaussian 09:  ES64L-G09RevD.01 24-Apr-2013

 --------------------
 #p B2PLYPD3/Def2QZVP
 --------------------

 ------------
 cyanomethane
 ------------
 Symbolic Z-matrix:
 Charge =  0 Multiplicity = 1

                         Standard orientation:
 ---------------------------------------------------------------------
 Center     Atomic      Atomic             Coordinates (Angstroms)
 Number     Number       Type             X           Y           Z
 ---------------------------------------------------------------------
      1          6           0        1.206509    0.015052    0.004387
      2          6           0       -0.298621    0.003048   -0.072547
      3          7           0       -1.426931    0.000639    0.042439
      4          1           0        1.573041   -0.160305    0.974741
      5          1           0        1.531532    0.918663   -0.332344
      6          1           0        1.436617   -0.871434   -0.530516
 ---------------------------------------------------------------------

 SCF Done:  E(RB2PLYPD3) =  -132.524674087     A.U. after   12 cycles
 E2(B2PLYPD3) =    -0.1785306682D+00 E(B2PLYPD3) =    -0.13270320475547D+03

 The electronic state is 1-A.
 Alpha  occ. eigenvalues --  -14.83543 -10.66154 -10.65613  -1.04793  -0.89602
 Alpha  occ. eigenvalues --   -0.58973  -0.56818  -0.52828  -0.44534  -0.39958
 Alpha  occ. eigenvalues --   -0.39486
 Alpha virt. eigenvalues --    0.03807   0.08369   0.09593   0.10187   0.11103
 Alpha virt. eigenvalues --    0.11616   0.15285   0.15562   0.16951   0.19917
 Alpha virt. eigenvalues --    0.20054   0.24788   0.32915   0.34273   0.36218

 Mulliken charges:
               1
     1  C   -0.084655
     2  C   -0.009871
     3  N   -0.195442
     4  H    0.089505
     5  H    0.102758
     6  H    0.097705
 Sum of Mulliken charges =   0.00000

 Dipole moment (field-independent basis, Debye):
    X=              4.0913    Y=             -0.0290    Z=             -0.0302  Tot=              4.0915
 Quadrupole moment (field-independent basis, Debye-Ang):
   XX=            -21.0556   YY=            -17.3529   ZZ=            -17.8709
   XY=              0.0100   XZ=              0.4156   YZ=             -0.0321

 Normal termination of Gaussian 09 at Wed Aug 26 22:35:54 2020.
