 Gaussian 09, Revision D.01,
 Gaussian 09:  ES64L-G09RevD.01 24-Apr-2013

 --------------------
 #p B2PLYPD3/Def2QZVP
 --------------------

 ------------
 cyanomethane
 ------------
 Symbolic Z-matrix:
 Charge =  0 Multiplicity = 1

                         Standard orientation:
 ---------------------------------------------------------------------
 Center     Atomic      Atomic             Coordinates (Angstroms)
 Number     Number       Type             X           Y           Z
 ---------------------------------------------------------------------
      1          6           0       -1.169029    0.003178   -0.007610
      2          6           0        0.276801   -0.016428   -0.009321
      3          7           0        1.431652    0.009325    0.004806
      4          1           0       -1.554980   -0.721832   -0.690888
      5          1           0       -1.573178    0.988247   -0.248641
      6          1           0       -1.540035   -0.252189    1.007472
 ---------------------------------------------------------------------

 SCF Done:  E(RB2PLYPD3) =  -132.534901999     A.U. after   11 cycles
 E2(B2PLYPD3) =    -0.1805570130D+00 E(B2PLYPD3) =    -0.13271545901183D+03

 The electronic state is 1-A.
 Alpha  occ. eigenvalues --  -14.84232 -10.67010 -10.66260  -1.04137  -0.89382
 Alpha  occ. eigenvalues --   -0.60147  -0.54386  -0.53277  -0.44842  -0.39098
 Alpha  occ. eigenvalues --   -0.38912
 Alpha virt. eigenvalues --    0.03745   0.07588   0.08010   0.10148   0.11401
 Alpha virt. eigenvalues --    0.11646   0.15514   0.16182   0.16692   0.20061
 Alpha virt. eigenvalues --    0.20139   0.25574   0.32854   0.34211   0.35016

 Mulliken charges:
               1
     1  C   -0.079602
     2  C    0.000013
     3  N   -0.206350
     4  H    0.097171
     5  H    0.095937
     6  H    0.092831
 Sum of Mulliken charges =   0.00000

 Dipole moment (field-independent basis, Debye):
    X=             -4.1273    Y=             -0.0160    Z=             -0.0006  Tot=              4.1273
 Quadrupole moment (field-independent basis, Debye-Ang):
   XX=            -20.9325   YY=            -17.7397   ZZ=            -17.7929
   XY=             -0.0629   XZ=             -0.0293   YZ=              0.0308

 Normal termination of Gaussian 09 at Thu Aug 27 00:00:09 2020.
