 Gaussian 09, Revision D.01,
 Gaussian 09:  ES64L-G09RevD.01 24-Apr-2013

 --------------------
 #p B2PLYPD3/Def2QZVP
 --------------------

 ------------
 cyanomethane
 ------------
 Symbolic Z-matrix:
 Charge =  0 Multiplicity = 1

                         Standard orientation:
 ---------------------------------------------------------------------
 Center     Atomic      Atomic             Coordinates (Angstroms)
 Number     Number       Type             X           Y           Z
 ---------------------------------------------------------------------
      1          6           0        1.179049    0.001226    0.022605
      2          6           0       -0.269789   -0.002161   -0.053611
      3          7           0       -1.453905    0.006684    0.018771
      4          1           0        1.680070    0.966433   -0.396981
      5          1           0        1.567684   -0.881639   -0.580685
      6          1           0        1.474018   -0.125971    1.032301
 ---------------------------------------------------------------------

 SCF Done:  E(RB2PLYPD3) =  -132.524249545     A.U. after   12 cycles
 E2(B2PLYPD3) =    -0.1838754468D+00 E(B2PLYPD3) =    -0.13270812499168D+03

 The electronic state is 1-A.
 Alpha  occ. eigenvalues --  -14.85198 -10.68099 -10.67307  -1.02961  -0.88797
 Alpha  occ. eigenvalues --   -0.59966  -0.53960  -0.52350  -0.45005  -0.38349
 Alpha  occ. eigenvalues --   -0.38182
 Alpha virt. eigenvalues --    0.03490   0.06386   0.07038   0.10065   0.11226
 Alpha virt. eigenvalues --    0.11302   0.15324   0.15821   0.16694   0.20178
 Alpha virt. eigenvalues --    0.20225   0.25629   0.31667   0.33468   0.34783

 Mulliken charges:
               1
     1  C   -0.089779
     2  C    0.007700
     3  N   -0.218312
     4  H    0.096204
     5  H    0.096574
     6  H    0.107613
 Sum of Mulliken charges =   0.00000

 Dipole moment (field-independent basis, Debye):
    X=              4.1534    Y=             -0.0293    Z=              0.0090  Tot=              4.1535
 Quadrupole moment (field-independent basis, Debye-Ang):
   XX=            -21.0272   YY=            -17.8930   ZZ=            -17.9406
   XY=              0.0856   XZ=              0.0361   YZ=             -0.0085

 Normal termination of Gaussian 09 at Wed Aug 26 21:13:50 2020.
