 Gaussian 09, Revision D.01,
 Gaussian 09:  ES64L-G09RevD.01 24-Apr-2013

 --------------------
 #p B2PLYPD3/Def2QZVP
 --------------------

 ------------
 cyanomethane
 ------------
 Symbolic Z-matrix:
 Charge =  0 Multiplicity = 1

                         Standard orientation:
 ---------------------------------------------------------------------
 Center     Atomic      Atomic             Coordinates (Angstroms)
 Number     Number       Type             X           Y           Z
 ---------------------------------------------------------------------
      1          6           0       -1.171473    0.006591   -0.017280
      2          6           0        0.276222    0.030755   -0.000955
      3          7           0        1.448414   -0.021352    0.004377
      4          1           0       -1.524618    0.962640   -0.311271
      5          1           0       -1.625206   -0.219454    1.036404
      6          1           0       -1.617571   -0.817799   -0.646368
 ---------------------------------------------------------------------

 SCF Done:  E(RB2PLYPD3) =  -132.526175227     A.U. after   12 cycles
 E2(B2PLYPD3) =    -0.1827301562D+00 E(B2PLYPD3) =    -0.13270890538361D+03

 The electronic state is 1-A.
 Alpha  occ. eigenvalues --  -14.84901 -10.67957 -10.66978  -1.03502  -0.88794
 Alpha  occ. eigenvalues --   -0.60271  -0.54568  -0.51434  -0.45036  -0.38785
 Alpha  occ. eigenvalues --   -0.38359
 Alpha virt. eigenvalues --    0.03430   0.06321   0.07644   0.10055   0.11091
 Alpha virt. eigenvalues --    0.11723   0.15378   0.16209   0.16877   0.20040
 Alpha virt. eigenvalues --    0.20289   0.25553   0.32120   0.33330   0.34902

 Mulliken charges:
               1
     1  C   -0.081128
     2  C    0.005314
     3  N   -0.212240
     4  H    0.102856
     5  H    0.088145
     6  H    0.097053
 Sum of Mulliken charges =   0.00000

 Dipole moment (field-independent basis, Debye):
    X=             -4.1482    Y=              0.0258    Z=             -0.0021  Tot=              4.1483
 Quadrupole moment (field-independent basis, Debye-Ang):
   XX=            -20.8751   YY=            -17.7702   ZZ=            -18.0643
   XY=              0.2033   XZ=             -0.0792   YZ=             -0.0194

 Normal termination of Gaussian 09 at Wed Aug 26 16:17:23 2020.
