 Gaussian 09, Revision D.01,
 Gaussian 09:  ES64L-G09RevD.01 24-Apr-2013

 --------------------
 #p B2PLYPD3/Def2QZVP
 --------------------

 ------------
 cyanomethane
 ------------
 Symbolic Z-matrix:
 Charge =  0 Multiplicity = 1

                         Standard orientation:
 ---------------------------------------------------------------------
 Center     Atomic      Atomic             Coordinates (Angstroms)
 Number     Number       Type             X           Y           Z
 ---------------------------------------------------------------------
      1          6           0        1.166427   -0.005955   -0.021007
      2          6           0       -0.271893    0.022524   -0.015674
      3          7           0       -1.427226   -0.011396    0.016561
      4          1           0        1.620874   -0.342913    0.993677
      5          1           0        1.521759    1.016855   -0.159914
      6          1           0        1.480748   -0.693582   -0.729609
 ---------------------------------------------------------------------

 SCF Done:  E(RB2PLYPD3) =  -132.528856283     A.U. after   12 cycles
 E2(B2PLYPD3) =    -0.1808126837D+00 E(B2PLYPD3) =    -0.13270966896642D+03

 The electronic state is 1-A.
 Alpha  occ. eigenvalues --  -14.84204 -10.67123 -10.66188  -1.04095  -0.89560
 Alpha  occ. eigenvalues --   -0.59848  -0.55851  -0.52079  -0.44801  -0.39115
 Alpha  occ. eigenvalues --   -0.38631
 Alpha virt. eigenvalues --    0.03595   0.07077   0.08356   0.10124   0.11257
 Alpha virt. eigenvalues --    0.11834   0.15480   0.16071   0.16572   0.20022
 Alpha virt. eigenvalues --    0.20198   0.25689   0.32477   0.33574   0.35480

 Mulliken charges:
               1
     1  C   -0.086775
     2  C   -0.000115
     3  N   -0.207321
     4  H    0.088253
     5  H    0.100286
     6  H    0.105671
 Sum of Mulliken charges =   0.00000

 Dipole moment (field-independent basis, Debye):
    X=              4.1097    Y=              0.0144    Z=             -0.0222  Tot=              4.1097
 Quadrupole moment (field-independent basis, Debye-Ang):
   XX=            -21.0576   YY=            -17.6161   ZZ=            -17.8678
   XY=             -0.0735   XZ=              0.2134   YZ=              0.1110

 Normal termination of Gaussian 09 at Wed Aug 26 12:14:30 2020.
