 Gaussian 09, Revision D.01,
 Gaussian 09:  ES64L-G09RevD.01 24-Apr-2013

 --------------------
 #p B2PLYPD3/Def2QZVP
 --------------------

 ------------
 cyanomethane
 ------------
 Symbolic Z-matrix:
 Charge =  0 Multiplicity = 1

                         Standard orientation:
 ---------------------------------------------------------------------
 Center     Atomic      Atomic             Coordinates (Angstroms)
 Number     Number       Type             X           Y           Z
 ---------------------------------------------------------------------
      1          6           0        1.160217    0.001196    0.013948
      2          6           0       -0.267070    0.006191   -0.018627
      3          7           0       -1.432126   -0.000943    0.008285
      4          1           0        1.586612    1.035362   -0.170003
      5          1           0        1.533929   -0.679618   -0.809986
      6          1           0        1.545462   -0.393466    0.950069
 ---------------------------------------------------------------------

 SCF Done:  E(RB2PLYPD3) =  -132.531129919     A.U. after   12 cycles
 E2(B2PLYPD3) =    -0.1818321005D+00 E(B2PLYPD3) =    -0.13271296201986D+03

 The electronic state is 1-A.
 Alpha  occ. eigenvalues --  -14.84494 -10.67684 -10.66486  -1.03776  -0.89207
 Alpha  occ. eigenvalues --   -0.60120  -0.53808  -0.53002  -0.44893  -0.38693
 Alpha  occ. eigenvalues --   -0.38498
 Alpha virt. eigenvalues --    0.03614   0.07063   0.07278   0.10065   0.11500
 Alpha virt. eigenvalues --    0.11655   0.15537   0.15952   0.16675   0.20141
 Alpha virt. eigenvalues --    0.20171   0.25873   0.32549   0.33652   0.34635

 Mulliken charges:
               1
     1  C   -0.089386
     2  C    0.003612
     3  N   -0.210824
     4  H    0.098546
     5  H    0.095971
     6  H    0.102082
 Sum of Mulliken charges =   0.00000

 Dipole moment (field-independent basis, Debye):
    X=              4.1242    Y=             -0.0170    Z=             -0.0075  Tot=              4.1242
 Quadrupole moment (field-independent basis, Debye-Ang):
   XX=            -21.0568   YY=            -17.7564   ZZ=            -17.8473
   XY=             -0.0066   XZ=              0.0501   YZ=             -0.0364

 Normal termination of Gaussian 09 at Wed Aug 26 11:01:49 2020.
