 Gaussian 09, Revision D.01,
 Gaussian 09:  ES64L-G09RevD.01 24-Apr-2013

 --------------------
 #p B2PLYPD3/Def2QZVP
 --------------------

 ------------
 cyanomethane
 ------------
 Symbolic Z-matrix:
 Charge =  0 Multiplicity = 1

                         Standard orientation:
 ---------------------------------------------------------------------
 Center     Atomic      Atomic             Coordinates (Angstroms)
 Number     Number       Type             X           Y           Z
 ---------------------------------------------------------------------
      1          6           0        1.176383   -0.003528   -0.003702
      2          6           0       -0.277984    0.007370   -0.013896
      3          7           0       -1.426640   -0.003005    0.011518
      4          1           0        1.583443   -0.104939    1.019516
      5          1           0        1.516374    0.962505   -0.410046
      6          1           0        1.496265   -0.859582   -0.584513
 ---------------------------------------------------------------------

 SCF Done:  E(RB2PLYPD3) =  -132.534759463     A.U. after   11 cycles
 E2(B2PLYPD3) =    -0.1800859678D+00 E(B2PLYPD3) =    -0.13271484543075D+03

 The electronic state is 1-A.
 Alpha  occ. eigenvalues --  -14.83942 -10.67314 -10.65980  -1.04294  -0.89171
 Alpha  occ. eigenvalues --   -0.59251  -0.54728  -0.53190  -0.44686  -0.39174
 Alpha  occ. eigenvalues --   -0.39029
 Alpha virt. eigenvalues --    0.03725   0.07715   0.08257   0.10178   0.11447
 Alpha virt. eigenvalues --    0.11666   0.15359   0.15982   0.16438   0.20036
 Alpha virt. eigenvalues --    0.20123   0.25390   0.32768   0.34169   0.34734

 Mulliken charges:
               1
     1  C   -0.093804
     2  C   -0.003063
     3  N   -0.203966
     4  H    0.096482
     5  H    0.101230
     6  H    0.103121
 Sum of Mulliken charges =   0.00000

 Dipole moment (field-independent basis, Debye):
    X=              4.1039    Y=              0.0001    Z=             -0.0043  Tot=              4.1039
 Quadrupole moment (field-independent basis, Debye-Ang):
   XX=            -21.1590   YY=            -17.5797   ZZ=            -17.8118
   XY=             -0.0180   XZ=              0.1663   YZ=              0.0218

 Normal termination of Gaussian 09 at Thu Aug 27 00:11:39 2020.
