 Gaussian 09, Revision D.01,
 Gaussian 09:  ES64L-G09RevD.01 24-Apr-2013

 --------------------
 #p B2PLYPD3/Def2QZVP
 --------------------

 ------------
 cyanomethane
 ------------
 Symbolic Z-matrix:
 Charge =  0 Multiplicity = 1

                         Standard orientation:
 ---------------------------------------------------------------------
 Center     Atomic      Atomic             Coordinates (Angstroms)
 Number     Number       Type             X           Y           Z
 ---------------------------------------------------------------------
      1          6           0       -1.178975   -0.010769   -0.001304
      2          6           0        0.279500    0.022161   -0.004136
      3          7           0        1.426704   -0.009862    0.002518
      4          1           0       -1.532333   -0.078769    0.991822
      5          1           0       -1.520912   -0.844649   -0.554878
      6          1           0       -1.536829    0.924103   -0.421936
 ---------------------------------------------------------------------

 SCF Done:  E(RB2PLYPD3) =  -132.535167847     A.U. after   11 cycles
 E2(B2PLYPD3) =    -0.1795716279D+00 E(B2PLYPD3) =    -0.13271473947529D+03

 The electronic state is 1-A.
 Alpha  occ. eigenvalues --  -14.83916 -10.66414 -10.65947  -1.04348  -0.89751
 Alpha  occ. eigenvalues --   -0.59641  -0.54950  -0.54181  -0.44690  -0.39302
 Alpha  occ. eigenvalues --   -0.39186
 Alpha virt. eigenvalues --    0.03883   0.08353   0.08407   0.10194   0.11413
 Alpha virt. eigenvalues --    0.11528   0.15449   0.16062   0.16504   0.20043
 Alpha virt. eigenvalues --    0.20103   0.25352   0.32947   0.34731   0.35240

 Mulliken charges:
               1
     1  C   -0.080885
     2  C   -0.004410
     3  N   -0.203885
     4  H    0.095200
     5  H    0.098969
     6  H    0.095010
 Sum of Mulliken charges =   0.00000

 Dipole moment (field-independent basis, Debye):
    X=             -4.1173    Y=              0.0133    Z=              0.0120  Tot=              4.1174
 Quadrupole moment (field-independent basis, Debye-Ang):
   XX=            -21.0198   YY=            -17.6040   ZZ=            -17.7409
   XY=              0.0454   XZ=             -0.0571   YZ=              0.0259

 Normal termination of Gaussian 09 at Wed Aug 26 18:39:23 2020.
