 Gaussian 09, Revision D.01,
 Gaussian 09:  ES64L-G09RevD.01 24-Apr-2013

 --------------------
 #p B2PLYPD3/Def2QZVP
 --------------------

 ------------
 cyanomethane
 ------------
 Symbolic Z-matrix:
 Charge =  0 Multiplicity = 1

                         Standard orientation:
 ---------------------------------------------------------------------
 Center     Atomic      Atomic             Coordinates (Angstroms)
 Number     Number       Type             X           Y           Z
 ---------------------------------------------------------------------
      1          6           0       -1.175812    0.002706   -0.001132
      2          6           0        0.276904    0.002171   -0.000099
      3          7           0        1.429367    0.003128   -0.000749
      4          1           0       -1.503569   -0.386717    0.937202
      5          1           0       -1.508839   -0.665539   -0.772849
      6          1           0       -1.599710    1.001097   -0.151727
 ---------------------------------------------------------------------

 SCF Done:  E(RB2PLYPD3) =  -132.535316662     A.U. after   12 cycles
 E2(B2PLYPD3) =    -0.1801386334D+00 E(B2PLYPD3) =    -0.13271545529503D+03

 The electronic state is 1-A.
 Alpha  occ. eigenvalues --  -14.84069 -10.66745 -10.66113  -1.04181  -0.89597
 Alpha  occ. eigenvalues --   -0.59708  -0.54344  -0.54215  -0.44736  -0.39125
 Alpha  occ. eigenvalues --   -0.39041
 Alpha virt. eigenvalues --    0.03822   0.07902   0.08319   0.10191   0.11433
 Alpha virt. eigenvalues --    0.11535   0.15456   0.15894   0.16699   0.20083
 Alpha virt. eigenvalues --    0.20121   0.25420   0.32847   0.34680   0.34920

 Mulliken charges:
               1
     1  C   -0.083430
     2  C   -0.002514
     3  N   -0.206033
     4  H    0.097124
     5  H    0.097480
     6  H    0.097373
 Sum of Mulliken charges =   0.00000

 Dipole moment (field-independent basis, Debye):
    X=             -4.1255    Y=             -0.0258    Z=              0.0098  Tot=              4.1256
 Quadrupole moment (field-independent basis, Debye-Ang):
   XX=            -21.0193   YY=            -17.6535   ZZ=            -17.7680
   XY=             -0.0456   XZ=             -0.0009   YZ=              0.0015

 Normal termination of Gaussian 09 at Thu Aug 27 00:10:22 2020.
