 Gaussian 09, Revision D.01,
 Gaussian 09:  ES64L-G09RevD.01 24-Apr-2013

 --------------------
 #p B2PLYPD3/Def2QZVP
 --------------------

 ------------
 cyanomethane
 ------------
 Symbolic Z-matrix:
 Charge =  0 Multiplicity = 1

                         Standard orientation:
 ---------------------------------------------------------------------
 Center     Atomic      Atomic             Coordinates (Angstroms)
 Number     Number       Type             X           Y           Z
 ---------------------------------------------------------------------
      1          6           0        1.183767    0.000975   -0.000344
      2          6           0       -0.278041    0.000562   -0.004781
      3          7           0       -1.437273   -0.000041   -0.000403
      4          1           0        1.561422    0.959433   -0.363462
      5          1           0        1.563437   -0.814482   -0.620402
      6          1           0        1.501694   -0.153887    1.017438
 ---------------------------------------------------------------------

 SCF Done:  E(RB2PLYPD3) =  -132.535160852     A.U. after   12 cycles
 E2(B2PLYPD3) =    -0.1808259824D+00 E(B2PLYPD3) =    -0.13271598683414D+03

 The electronic state is 1-A.
 Alpha  occ. eigenvalues --  -14.84283 -10.67149 -10.66369  -1.03889  -0.89250
 Alpha  occ. eigenvalues --   -0.59447  -0.54182  -0.53997  -0.44750  -0.38970
 Alpha  occ. eigenvalues --   -0.38921
 Alpha virt. eigenvalues --    0.03763   0.07815   0.08049   0.10189   0.11339
 Alpha virt. eigenvalues --    0.11402   0.15330   0.15991   0.16435   0.20104
 Alpha virt. eigenvalues --    0.20129   0.25237   0.32605   0.34578   0.34706

 Mulliken charges:
               1
     1  C   -0.087098
     2  C   -0.001714
     3  N   -0.208769
     4  H    0.099286
     5  H    0.098587
     6  H    0.099707
 Sum of Mulliken charges =   0.00000

 Dipole moment (field-independent basis, Debye):
    X=              4.1357    Y=             -0.0041    Z=              0.0132  Tot=              4.1357
 Quadrupole moment (field-independent basis, Debye-Ang):
   XX=            -21.0750   YY=            -17.7140   ZZ=            -17.7762
   XY=             -0.0043   XZ=             -0.0246   YZ=             -0.0051

 Normal termination of Gaussian 09 at Thu Aug 27 00:02:46 2020.
