 Gaussian 09, Revision D.01,
 Gaussian 09:  ES64L-G09RevD.01 24-Apr-2013

 --------------------
 #p B2PLYPD3/Def2QZVP
 --------------------

 ------------
 cyanomethane
 ------------
 Symbolic Z-matrix:
 Charge =  0 Multiplicity = 1

                         Standard orientation:
 ---------------------------------------------------------------------
 Center     Atomic      Atomic             Coordinates (Angstroms)
 Number     Number       Type             X           Y           Z
 ---------------------------------------------------------------------
      1          6           0       -1.177178    0.006575    0.008062
      2          6           0        0.277182    0.018313   -0.004531
      3          7           0        1.438998   -0.014298    0.001364
      4          1           0       -1.505163    1.032547   -0.085406
      5          1           0       -1.578876   -0.473147    0.898785
      6          1           0       -1.588967   -0.608643   -0.844107
 ---------------------------------------------------------------------

 SCF Done:  E(RB2PLYPD3) =  -132.532789471     A.U. after   12 cycles
 E2(B2PLYPD3) =    -0.1813306018D+00 E(B2PLYPD3) =    -0.13271412007298D+03

 The electronic state is 1-A.
 Alpha  occ. eigenvalues --  -14.84441 -10.67428 -10.66512  -1.03832  -0.89085
 Alpha  occ. eigenvalues --   -0.59845  -0.54675  -0.52622  -0.44846  -0.38958
 Alpha  occ. eigenvalues --   -0.38723
 Alpha virt. eigenvalues --    0.03665   0.07255   0.07951   0.10133   0.11214
 Alpha virt. eigenvalues --    0.11626   0.15336   0.16180   0.16544   0.20043
 Alpha virt. eigenvalues --    0.20201   0.25403   0.32536   0.33983   0.34917

 Mulliken charges:
               1
     1  C   -0.084752
     2  C    0.000847
     3  N   -0.209331
     4  H    0.102304
     5  H    0.097964
     6  H    0.092968
 Sum of Mulliken charges =   0.00000

 Dipole moment (field-independent basis, Debye):
    X=             -4.1355    Y=              0.0042    Z=              0.0022  Tot=              4.1355
 Quadrupole moment (field-independent basis, Debye-Ang):
   XX=            -21.0078   YY=            -17.6635   ZZ=            -17.9330
   XY=              0.1921   XZ=             -0.0105   YZ=             -0.0432

 Normal termination of Gaussian 09 at Thu Aug 27 00:03:32 2020.
