 Gaussian 09, Revision D.01,
 Gaussian 09:  ES64L-G09RevD.01 24-Apr-2013

 --------------------
 #p B2PLYPD3/Def2QZVP
 --------------------

 ------------
 cyanomethane
 ------------
 Symbolic Z-matrix:
 Charge =  0 Multiplicity = 1

                         Standard orientation:
 ---------------------------------------------------------------------
 Center     Atomic      Atomic             Coordinates (Angstroms)
 Number     Number       Type             X           Y           Z
 ---------------------------------------------------------------------
      1          6           0        1.181175    0.032422   -0.000831
      2          6           0       -0.292379   -0.063465   -0.005668
      3          7           0       -1.443165    0.037435    0.007896
      4          1           0        1.672476    1.067794   -0.183721
      5          1           0        1.479722   -0.731728   -0.816174
      6          1           0        1.617181   -0.411854    0.983618
 ---------------------------------------------------------------------

 SCF Done:  E(RB2PLYPD3) =  -132.519965497     A.U. after   13 cycles
 E2(B2PLYPD3) =    -0.1819661368D+00 E(B2PLYPD3) =    -0.13270193163354D+03

 The electronic state is 1-A.
 Alpha  occ. eigenvalues --  -14.84420 -10.69401 -10.66574  -1.04177  -0.87348
 Alpha  occ. eigenvalues --   -0.58957  -0.52421  -0.51517  -0.44924  -0.39123
 Alpha  occ. eigenvalues --   -0.38776
 Alpha virt. eigenvalues --    0.03108   0.06490   0.07466   0.09941   0.11496
 Alpha virt. eigenvalues --    0.11658   0.15030   0.15395   0.17713   0.20048
 Alpha virt. eigenvalues --    0.20281   0.25492   0.31909   0.32729   0.33717

 Mulliken charges:
               1
     1  C   -0.107954
     2  C    0.008459
     3  N   -0.202938
     4  H    0.108251
     5  H    0.097518
     6  H    0.096663
 Sum of Mulliken charges =   0.00000

 Dipole moment (field-independent basis, Debye):
    X=              4.0910    Y=             -0.0765    Z=             -0.0113  Tot=              4.0917
 Quadrupole moment (field-independent basis, Debye-Ang):
   XX=            -21.0901   YY=            -17.7148   ZZ=            -18.0646
   XY=              0.2726   XZ=              0.1345   YZ=             -0.0102

 Normal termination of Gaussian 09 at Wed Aug 26 19:49:33 2020.
