 Gaussian 09, Revision D.01,
 Gaussian 09:  ES64L-G09RevD.01 24-Apr-2013

 --------------------
 #p B2PLYPD3/Def2QZVP
 --------------------

 ------------
 cyanomethane
 ------------
 Symbolic Z-matrix:
 Charge =  0 Multiplicity = 1

                         Standard orientation:
 ---------------------------------------------------------------------
 Center     Atomic      Atomic             Coordinates (Angstroms)
 Number     Number       Type             X           Y           Z
 ---------------------------------------------------------------------
      1          6           0       -1.181844   -0.002096    0.015515
      2          6           0        0.273555   -0.039133   -0.000833
      3          7           0        1.436130    0.029893   -0.002563
      4          1           0       -1.490843   -0.188158    0.922828
      5          1           0       -1.455583   -0.779272   -0.657020
      6          1           0       -1.656748    1.005555   -0.335957
 ---------------------------------------------------------------------

 SCF Done:  E(RB2PLYPD3) =  -132.519025932     A.U. after   12 cycles
 E2(B2PLYPD3) =    -0.1812937692D+00 E(B2PLYPD3) =    -0.13270031970155D+03

 The electronic state is 1-A.
 Alpha  occ. eigenvalues --  -14.84467 -10.66520 -10.66446  -1.03750  -0.90135
 Alpha  occ. eigenvalues --   -0.60124  -0.55886  -0.52906  -0.44807  -0.38976
 Alpha  occ. eigenvalues --   -0.38674
 Alpha virt. eigenvalues --    0.03482   0.07257   0.08883   0.10099   0.11148
 Alpha virt. eigenvalues --    0.11426   0.15250   0.15608   0.17055   0.20132
 Alpha virt. eigenvalues --    0.20220   0.25460   0.32259   0.33935   0.35387

 Mulliken charges:
               1
     1  C   -0.087125
     2  C    0.001051
     3  N   -0.211807
     4  H    0.105445
     5  H    0.099416
     6  H    0.093020
 Sum of Mulliken charges =   0.00000

 Dipole moment (field-independent basis, Debye):
    X=             -4.1268    Y=             -0.0775    Z=              0.0241  Tot=              4.1276
 Quadrupole moment (field-independent basis, Debye-Ang):
   XX=            -21.0045   YY=            -17.6830   ZZ=            -17.7979
   XY=             -0.2397   XZ=             -0.0138   YZ=              0.0283

 Normal termination of Gaussian 09 at Wed Aug 26 18:55:28 2020.
