 Gaussian 09, Revision D.01,
 Gaussian 09:  ES64L-G09RevD.01 24-Apr-2013

 --------------------
 #p B2PLYPD3/Def2QZVP
 --------------------

 ------------
 cyanomethane
 ------------
 Symbolic Z-matrix:
 Charge =  0 Multiplicity = 1

                         Standard orientation:
 ---------------------------------------------------------------------
 Center     Atomic      Atomic             Coordinates (Angstroms)
 Number     Number       Type             X           Y           Z
 ---------------------------------------------------------------------
      1          6           0        1.175834   -0.003985    0.013398
      2          6           0       -0.265848   -0.010132   -0.034070
      3          7           0       -1.422404    0.002123    0.001173
      4          1           0        1.531940    1.026844   -0.320847
      5          1           0        1.664417   -0.811691   -0.586965
      6          1           0        1.300559   -0.145309    1.023632
 ---------------------------------------------------------------------

 SCF Done:  E(RB2PLYPD3) =  -132.525975751     A.U. after   12 cycles
 E2(B2PLYPD3) =    -0.1809051887D+00 E(B2PLYPD3) =    -0.13270688093937D+03

 The electronic state is 1-A.
 Alpha  occ. eigenvalues --  -14.84017 -10.67214 -10.66115  -1.03983  -0.89862
 Alpha  occ. eigenvalues --   -0.58857  -0.55457  -0.53363  -0.44596  -0.38799
 Alpha  occ. eigenvalues --   -0.38705
 Alpha virt. eigenvalues --    0.03696   0.07240   0.08510   0.10249   0.11503
 Alpha virt. eigenvalues --    0.11646   0.15019   0.15437   0.16725   0.20124
 Alpha virt. eigenvalues --    0.20193   0.25621   0.32106   0.33954   0.35110

 Mulliken charges:
               1
     1  C   -0.106441
     2  C   -0.001081
     3  N   -0.210756
     4  H    0.102210
     5  H    0.101945
     6  H    0.114123
 Sum of Mulliken charges =   0.00000

 Dipole moment (field-independent basis, Debye):
    X=              4.1043    Y=             -0.0082    Z=              0.0345  Tot=              4.1045
 Quadrupole moment (field-independent basis, Debye-Ang):
   XX=            -21.3087   YY=            -17.6021   ZZ=            -17.7478
   XY=             -0.0624   XZ=             -0.1918   YZ=             -0.0168

 Normal termination of Gaussian 09 at Wed Aug 26 21:22:28 2020.
