 Gaussian 09, Revision D.01,
 Gaussian 09:  ES64L-G09RevD.01 24-Apr-2013

 --------------------
 #p B2PLYPD3/Def2QZVP
 --------------------

 ------------
 cyanomethane
 ------------
 Symbolic Z-matrix:
 Charge =  0 Multiplicity = 1

                         Standard orientation:
 ---------------------------------------------------------------------
 Center     Atomic      Atomic             Coordinates (Angstroms)
 Number     Number       Type             X           Y           Z
 ---------------------------------------------------------------------
      1          6           0       -1.179403    0.000533   -0.001392
      2          6           0        0.275101   -0.033957   -0.009639
      3          7           0        1.444742    0.019424    0.005049
      4          1           0       -1.557579   -0.108774    1.028009
      5          1           0       -1.545423   -0.805689   -0.608184
      6          1           0       -1.584378    0.979040   -0.388986
 ---------------------------------------------------------------------

 SCF Done:  E(RB2PLYPD3) =  -132.531938910     A.U. after   12 cycles
 E2(B2PLYPD3) =    -0.1821194818D+00 E(B2PLYPD3) =    -0.13271405839149D+03

 The electronic state is 1-A.
 Alpha  occ. eigenvalues --  -14.84716 -10.67503 -10.66795  -1.03506  -0.89047
 Alpha  occ. eigenvalues --   -0.59860  -0.54311  -0.52931  -0.44902  -0.38729
 Alpha  occ. eigenvalues --   -0.38590
 Alpha virt. eigenvalues --    0.03594   0.07057   0.07795   0.10105   0.11162
 Alpha virt. eigenvalues --    0.11471   0.15379   0.16011   0.16595   0.20091
 Alpha virt. eigenvalues --    0.20214   0.25443   0.32488   0.34054   0.34694

 Mulliken charges:
               1
     1  C   -0.084050
     2  C    0.002488
     3  N   -0.212726
     4  H    0.097383
     5  H    0.100288
     6  H    0.096618
 Sum of Mulliken charges =   0.00000

 Dipole moment (field-independent basis, Debye):
    X=             -4.1460    Y=             -0.0289    Z=              0.0013  Tot=              4.1461
 Quadrupole moment (field-independent basis, Debye-Ang):
   XX=            -20.9967   YY=            -17.8073   ZZ=            -17.8577
   XY=             -0.1266   XZ=             -0.0434   YZ=              0.0407

 Normal termination of Gaussian 09 at Wed Aug 26 15:01:18 2020.
