 Gaussian 09, Revision D.01,
 Gaussian 09:  ES64L-G09RevD.01 24-Apr-2013

 --------------------
 #p B2PLYPD3/Def2QZVP
 --------------------

 ------------
 cyanomethane
 ------------
 Symbolic Z-matrix:
 Charge =  0 Multiplicity = 1

                         Standard orientation:
 ---------------------------------------------------------------------
 Center     Atomic      Atomic             Coordinates (Angstroms)
 Number     Number       Type             X           Y           Z
 ---------------------------------------------------------------------
      1          6           0       -1.155653   -0.021147   -0.015449
      2          6           0        0.253398   -0.054400    0.031092
      3          7           0        1.440560    0.024678   -0.014116
      4          1           0       -1.548505    0.243230    1.007936
      5          1           0       -1.630021   -0.865177   -0.379398
      6          1           0       -1.491865    0.902484   -0.623590
 ---------------------------------------------------------------------

 SCF Done:  E(RB2PLYPD3) =  -132.521305101     A.U. after   12 cycles
 E2(B2PLYPD3) =    -0.1841581491D+00 E(B2PLYPD3) =    -0.13270546325055D+03

 The electronic state is 1-A.
 Alpha  occ. eigenvalues --  -14.85201 -10.67265 -10.67182  -1.02895  -0.89844
 Alpha  occ. eigenvalues --   -0.61368  -0.55133  -0.52064  -0.45048  -0.38255
 Alpha  occ. eigenvalues --   -0.37616
 Alpha virt. eigenvalues --    0.03350   0.06293   0.07202   0.09978   0.10990
 Alpha virt. eigenvalues --    0.11794   0.15568   0.15771   0.17008   0.20176
 Alpha virt. eigenvalues --    0.20353   0.26232   0.32589   0.32930   0.35024

 Mulliken charges:
               1
     1  C   -0.078916
     2  C    0.010135
     3  N   -0.221603
     4  H    0.092100
     5  H    0.104104
     6  H    0.094180
 Sum of Mulliken charges =   0.00000

 Dipole moment (field-independent basis, Debye):
    X=             -4.1706    Y=              0.0066    Z=              0.0272  Tot=              4.1707
 Quadrupole moment (field-independent basis, Debye-Ang):
   XX=            -20.9291   YY=            -17.7770   ZZ=            -18.0140
   XY=             -0.1096   XZ=              0.0395   YZ=              0.1045

 Normal termination of Gaussian 09 at Wed Aug 26 18:56:44 2020.
