 Gaussian 09, Revision D.01,
 Gaussian 09:  ES64L-G09RevD.01 24-Apr-2013

 --------------------
 #p B2PLYPD3/Def2QZVP
 --------------------

 ------------
 cyanomethane
 ------------
 Symbolic Z-matrix:
 Charge =  0 Multiplicity = 1

                         Standard orientation:
 ---------------------------------------------------------------------
 Center     Atomic      Atomic             Coordinates (Angstroms)
 Number     Number       Type             X           Y           Z
 ---------------------------------------------------------------------
      1          6           0        1.170594    0.002839   -0.017747
      2          6           0       -0.298968   -0.058009   -0.001162
      3          7           0       -1.443653    0.024550    0.010059
      4          1           0        1.734500   -0.051514    1.023070
      5          1           0        1.505886    1.012131   -0.405039
      6          1           0        1.635424   -0.801447   -0.574991
 ---------------------------------------------------------------------

 SCF Done:  E(RB2PLYPD3) =  -132.525341528     A.U. after   12 cycles
 E2(B2PLYPD3) =    -0.1808381150D+00 E(B2PLYPD3) =    -0.13270617964261D+03

 The electronic state is 1-A.
 Alpha  occ. eigenvalues --  -14.84355 -10.68473 -10.66506  -1.04597  -0.87857
 Alpha  occ. eigenvalues --   -0.60243  -0.53641  -0.50615  -0.45061  -0.39540
 Alpha  occ. eigenvalues --   -0.39062
 Alpha virt. eigenvalues --    0.03324   0.06580   0.07854   0.10185   0.11332
 Alpha virt. eigenvalues --    0.11982   0.15246   0.16811   0.17140   0.19858
 Alpha virt. eigenvalues --    0.20163   0.25309   0.31859   0.33517   0.34636

 Mulliken charges:
               1
     1  C   -0.081949
     2  C    0.006644
     3  N   -0.198945
     4  H    0.082260
     5  H    0.095817
     6  H    0.096173
 Sum of Mulliken charges =   0.00000

 Dipole moment (field-independent basis, Debye):
    X=              4.1143    Y=             -0.0277    Z=             -0.0227  Tot=              4.1145
 Quadrupole moment (field-independent basis, Debye-Ang):
   XX=            -20.6528   YY=            -17.7698   ZZ=            -18.1412
   XY=              0.0644   XZ=              0.1724   YZ=              0.0454

 Normal termination of Gaussian 09 at Wed Aug 26 22:32:08 2020.
