 Gaussian 09, Revision D.01,
 Gaussian 09:  ES64L-G09RevD.01 24-Apr-2013

 --------------------
 #p B2PLYPD3/Def2QZVP
 --------------------

 ------------
 cyanomethane
 ------------
 Symbolic Z-matrix:
 Charge =  0 Multiplicity = 1

                         Standard orientation:
 ---------------------------------------------------------------------
 Center     Atomic      Atomic             Coordinates (Angstroms)
 Number     Number       Type             X           Y           Z
 ---------------------------------------------------------------------
      1          6           0        1.182464   -0.015997   -0.010845
      2          6           0       -0.283858    0.059677   -0.010087
      3          7           0       -1.449173   -0.029506    0.007889
      4          1           0        1.583080    0.964587   -0.167079
      5          1           0        1.568447   -0.676802   -0.740314
      6          1           0        1.601049   -0.343321    0.977756
 ---------------------------------------------------------------------

 SCF Done:  E(RB2PLYPD3) =  -132.530903040     A.U. after   12 cycles
 E2(B2PLYPD3) =    -0.1818394078D+00 E(B2PLYPD3) =    -0.13271274244807D+03

 The electronic state is 1-A.
 Alpha  occ. eigenvalues --  -14.84802 -10.67056 -10.66898  -1.03647  -0.89106
 Alpha  occ. eigenvalues --   -0.60419  -0.54477  -0.52703  -0.45006  -0.38986
 Alpha  occ. eigenvalues --   -0.38754
 Alpha virt. eigenvalues --    0.03602   0.07239   0.07864   0.10060   0.11165
 Alpha virt. eigenvalues --    0.11431   0.15423   0.16015   0.17155   0.20018
 Alpha virt. eigenvalues --    0.20225   0.25410   0.32541   0.34139   0.35284

 Mulliken charges:
               1
     1  C   -0.070650
     2  C    0.005085
     3  N   -0.210974
     4  H    0.090841
     5  H    0.097063
     6  H    0.088634
 Sum of Mulliken charges =   0.00000

 Dipole moment (field-independent basis, Debye):
    X=              4.1506    Y=              0.0461    Z=             -0.0109  Tot=              4.1509
 Quadrupole moment (field-independent basis, Debye-Ang):
   XX=            -20.7598   YY=            -17.8582   ZZ=            -17.8957
   XY=             -0.1360   XZ=              0.0759   YZ=              0.0599

 Normal termination of Gaussian 09 at Wed Aug 26 23:32:06 2020.
