 Gaussian 09, Revision D.01,
 Gaussian 09:  ES64L-G09RevD.01 24-Apr-2013

 --------------------
 #p B2PLYPD3/Def2QZVP
 --------------------

 ------------
 cyanomethane
 ------------
 Symbolic Z-matrix:
 Charge =  0 Multiplicity = 1

                         Standard orientation:
 ---------------------------------------------------------------------
 Center     Atomic      Atomic             Coordinates (Angstroms)
 Number     Number       Type             X           Y           Z
 ---------------------------------------------------------------------
      1          6           0        1.190224    0.021812    0.007514
      2          6           0       -0.284227    0.002009    0.047335
      3          7           0       -1.424362   -0.007319   -0.030921
      4          1           0        1.466975    1.010636   -0.179150
      5          1           0        1.603169   -0.674776   -0.834684
      6          1           0        1.464407   -0.427553    0.901191
 ---------------------------------------------------------------------

 SCF Done:  E(RB2PLYPD3) =  -132.525790358     A.U. after   12 cycles
 E2(B2PLYPD3) =    -0.1795893909D+00 E(B2PLYPD3) =    -0.13270537974872D+03

 The electronic state is 1-A.
 Alpha  occ. eigenvalues --  -14.83733 -10.67075 -10.65762  -1.04478  -0.89372
 Alpha  occ. eigenvalues --   -0.58385  -0.56872  -0.52149  -0.44569  -0.39559
 Alpha  occ. eigenvalues --   -0.39043
 Alpha virt. eigenvalues --    0.03532   0.07671   0.09251   0.10198   0.11170
 Alpha virt. eigenvalues --    0.11710   0.15253   0.15515   0.16649   0.19974
 Alpha virt. eigenvalues --    0.20108   0.25094   0.32235   0.33671   0.35944

 Mulliken charges:
               1
     1  C   -0.098697
     2  C   -0.006946
     3  N   -0.200974
     4  H    0.110383
     5  H    0.090476
     6  H    0.105757
 Sum of Mulliken charges =   0.00000

 Dipole moment (field-independent basis, Debye):
    X=              4.0808    Y=             -0.0019    Z=              0.0586  Tot=              4.0813
 Quadrupole moment (field-independent basis, Debye-Ang):
   XX=            -21.2562   YY=            -17.5087   ZZ=            -17.7696
   XY=             -0.1557   XZ=             -0.2465   YZ=             -0.1408

 Normal termination of Gaussian 09 at Wed Aug 26 23:52:21 2020.
