 Gaussian 09, Revision D.01,
 Gaussian 09:  ES64L-G09RevD.01 24-Apr-2013

 --------------------
 #p B2PLYPD3/Def2QZVP
 --------------------

 ------------
 cyanomethane
 ------------
 Symbolic Z-matrix:
 Charge =  0 Multiplicity = 1

                         Standard orientation:
 ---------------------------------------------------------------------
 Center     Atomic      Atomic             Coordinates (Angstroms)
 Number     Number       Type             X           Y           Z
 ---------------------------------------------------------------------
      1          6           0        1.164799   -0.004799   -0.011293
      2          6           0       -0.277932   -0.027169   -0.003264
      3          7           0       -1.428103    0.017458   -0.001875
      4          1           0        1.615717    0.975720   -0.285092
      5          1           0        1.577469   -0.741776   -0.590378
      6          1           0        1.482332   -0.164340    0.975940
 ---------------------------------------------------------------------

 SCF Done:  E(RB2PLYPD3) =  -132.530491237     A.U. after   12 cycles
 E2(B2PLYPD3) =    -0.1799512605D+00 E(B2PLYPD3) =    -0.13271044249781D+03

 The electronic state is 1-A.
 Alpha  occ. eigenvalues --  -14.84142 -10.66167 -10.66048  -1.04348  -0.90118
 Alpha  occ. eigenvalues --   -0.60877  -0.55213  -0.53309  -0.44872  -0.39326
 Alpha  occ. eigenvalues --   -0.39017
 Alpha virt. eigenvalues --    0.03793   0.07698   0.08620   0.10163   0.11338
 Alpha virt. eigenvalues --    0.11731   0.15648   0.15948   0.17355   0.20054
 Alpha virt. eigenvalues --    0.20177   0.25671   0.33042   0.34479   0.35586

 Mulliken charges:
               1
     1  C   -0.065785
     2  C    0.001290
     3  N   -0.205051
     4  H    0.087931
     5  H    0.092769
     6  H    0.088846
 Sum of Mulliken charges =   0.00000

 Dipole moment (field-independent basis, Debye):
    X=              4.1360    Y=             -0.0415    Z=              0.0463  Tot=              4.1364
 Quadrupole moment (field-independent basis, Debye-Ang):
   XX=            -20.7263   YY=            -17.6763   ZZ=            -17.8296
   XY=              0.1089   XZ=              0.0104   YZ=              0.0588

 Normal termination of Gaussian 09 at Wed Aug 26 10:43:26 2020.
