 Gaussian 09, Revision D.01,
 Gaussian 09:  ES64L-G09RevD.01 24-Apr-2013

 --------------------
 #p B2PLYPD3/Def2QZVP
 --------------------

 ------------
 cyanomethane
 ------------
 Symbolic Z-matrix:
 Charge =  0 Multiplicity = 1

                         Standard orientation:
 ---------------------------------------------------------------------
 Center     Atomic      Atomic             Coordinates (Angstroms)
 Number     Number       Type             X           Y           Z
 ---------------------------------------------------------------------
      1          6           0        1.176040    0.002592    0.010047
      2          6           0       -0.280728   -0.025709   -0.005129
      3          7           0       -1.428545    0.013712    0.001746
      4          1           0        1.548629    1.023507   -0.167433
      5          1           0        1.537545   -0.623660   -0.807208
      6          1           0        1.541763   -0.357127    0.932914
 ---------------------------------------------------------------------

 SCF Done:  E(RB2PLYPD3) =  -132.535336728     A.U. after   11 cycles
 E2(B2PLYPD3) =    -0.1798634820D+00 E(B2PLYPD3) =    -0.13271520020987D+03

 The electronic state is 1-A.
 Alpha  occ. eigenvalues --  -14.83991 -10.66886 -10.66028  -1.04344  -0.89376
 Alpha  occ. eigenvalues --   -0.59669  -0.54679  -0.53522  -0.44743  -0.39291
 Alpha  occ. eigenvalues --   -0.39112
 Alpha virt. eigenvalues --    0.03777   0.07907   0.08359   0.10180   0.11405
 Alpha virt. eigenvalues --    0.11615   0.15449   0.16060   0.16631   0.20042
 Alpha virt. eigenvalues --    0.20092   0.25399   0.32880   0.34325   0.35113

 Mulliken charges:
               1
     1  C   -0.083826
     2  C   -0.002927
     3  N   -0.203448
     4  H    0.095831
     5  H    0.094939
     6  H    0.099431
 Sum of Mulliken charges =   0.00000

 Dipole moment (field-independent basis, Debye):
    X=              4.1144    Y=             -0.0220    Z=             -0.0066  Tot=              4.1144
 Quadrupole moment (field-independent basis, Debye-Ang):
   XX=            -21.0103   YY=            -17.7341   ZZ=            -17.6882
   XY=              0.0824   XZ=              0.0004   YZ=             -0.0254

 Normal termination of Gaussian 09 at Wed Aug 26 10:18:14 2020.
