 Gaussian 09, Revision D.01,
 Gaussian 09:  ES64L-G09RevD.01 24-Apr-2013

 --------------------
 #p B2PLYPD3/Def2QZVP
 --------------------

 ------------
 cyanomethane
 ------------
 Symbolic Z-matrix:
 Charge =  0 Multiplicity = 1

                         Standard orientation:
 ---------------------------------------------------------------------
 Center     Atomic      Atomic             Coordinates (Angstroms)
 Number     Number       Type             X           Y           Z
 ---------------------------------------------------------------------
      1          6           0       -1.166094   -0.022823    0.021903
      2          6           0        0.267767    0.068818   -0.000870
      3          7           0        1.451754   -0.036222   -0.009118
      4          1           0       -1.559268    1.023021   -0.100543
      5          1           0       -1.515515   -0.448488    0.853400
      6          1           0       -1.697529   -0.596943   -0.815226
 ---------------------------------------------------------------------

 SCF Done:  E(RB2PLYPD3) =  -132.516947616     A.U. after   12 cycles
 E2(B2PLYPD3) =    -0.1839599093D+00 E(B2PLYPD3) =    -0.13270090752512D+03

 The electronic state is 1-A.
 Alpha  occ. eigenvalues --  -14.85401 -10.67431 -10.66919  -1.03028  -0.89708
 Alpha  occ. eigenvalues --   -0.61713  -0.55057  -0.51686  -0.45193  -0.38499
 Alpha  occ. eigenvalues --   -0.38032
 Alpha virt. eigenvalues --    0.03428   0.06222   0.07301   0.09815   0.11136
 Alpha virt. eigenvalues --    0.11581   0.15474   0.16045   0.17424   0.20060
 Alpha virt. eigenvalues --    0.20490   0.26037   0.32269   0.33358   0.35374

 Mulliken charges:
               1
     1  C   -0.068423
     2  C    0.012310
     3  N   -0.218480
     4  H    0.088303
     5  H    0.101425
     6  H    0.084865
 Sum of Mulliken charges =   0.00000

 Dipole moment (field-independent basis, Debye):
    X=             -4.1580    Y=              0.0314    Z=              0.0272  Tot=              4.1582
 Quadrupole moment (field-independent basis, Debye-Ang):
   XX=            -20.6814   YY=            -17.8733   ZZ=            -18.0563
   XY=              0.2548   XZ=              0.1463   YZ=             -0.1242

 Normal termination of Gaussian 09 at Wed Aug 26 23:25:28 2020.
