 Gaussian 09, Revision D.01,
 Gaussian 09:  ES64L-G09RevD.01 24-Apr-2013

 --------------------
 #p B2PLYPD3/Def2QZVP
 --------------------

 ------------
 cyanomethane
 ------------
 Symbolic Z-matrix:
 Charge =  0 Multiplicity = 1

                         Standard orientation:
 ---------------------------------------------------------------------
 Center     Atomic      Atomic             Coordinates (Angstroms)
 Number     Number       Type             X           Y           Z
 ---------------------------------------------------------------------
      1          6           0       -1.181542    0.003965   -0.011398
      2          6           0        0.283497   -0.043113    0.010888
      3          7           0        1.423712    0.019724   -0.003729
      4          1           0       -1.490094    1.032221   -0.067138
      5          1           0       -1.551765   -0.398375    0.898801
      6          1           0       -1.535857   -0.537026   -0.802502
 ---------------------------------------------------------------------

 SCF Done:  E(RB2PLYPD3) =  -132.533105078     A.U. after   11 cycles
 E2(B2PLYPD3) =    -0.1789584340D+00 E(B2PLYPD3) =    -0.13271206351152D+03

 The electronic state is 1-A.
 Alpha  occ. eigenvalues --  -14.83759 -10.66025 -10.65780  -1.04565  -0.89943
 Alpha  occ. eigenvalues --   -0.59600  -0.55513  -0.54185  -0.44660  -0.39540
 Alpha  occ. eigenvalues --   -0.39344
 Alpha virt. eigenvalues --    0.03887   0.08434   0.08943   0.10236   0.11325
 Alpha virt. eigenvalues --    0.11589   0.15434   0.16102   0.16540   0.20013
 Alpha virt. eigenvalues --    0.20059   0.25322   0.33104   0.34748   0.35598

 Mulliken charges:
               1
     1  C   -0.077453
     2  C   -0.005907
     3  N   -0.201060
     4  H    0.095829
     5  H    0.091548
     6  H    0.097043
 Sum of Mulliken charges =   0.00000

 Dipole moment (field-independent basis, Debye):
    X=             -4.1104    Y=             -0.0302    Z=              0.0134  Tot=              4.1105
 Quadrupole moment (field-independent basis, Debye-Ang):
   XX=            -20.9661   YY=            -17.6175   ZZ=            -17.6676
   XY=             -0.0661   XZ=             -0.0114   YZ=              0.0446

 Normal termination of Gaussian 09 at Wed Aug 26 12:44:14 2020.
