 Gaussian 09, Revision D.01,
 Gaussian 09:  ES64L-G09RevD.01 24-Apr-2013

 --------------------
 #p B2PLYPD3/Def2QZVP
 --------------------

 ------------
 cyanomethane
 ------------
 Symbolic Z-matrix:
 Charge =  0 Multiplicity = 1

                         Standard orientation:
 ---------------------------------------------------------------------
 Center     Atomic      Atomic             Coordinates (Angstroms)
 Number     Number       Type             X           Y           Z
 ---------------------------------------------------------------------
      1          6           0       -1.163801   -0.013124   -0.009231
      2          6           0        0.285030    0.027545   -0.008199
      3          7           0        1.424503   -0.008078    0.009351
      4          1           0       -1.614407   -0.101397    1.021059
      5          1           0       -1.480090   -0.863374   -0.568688
      6          1           0       -1.604399    0.934789   -0.413250
 ---------------------------------------------------------------------

 SCF Done:  E(RB2PLYPD3) =  -132.533256922     A.U. after   11 cycles
 E2(B2PLYPD3) =    -0.1795240136D+00 E(B2PLYPD3) =    -0.13271278093573D+03

 The electronic state is 1-A.
 Alpha  occ. eigenvalues --  -14.83846 -10.67409 -10.65862  -1.04764  -0.88946
 Alpha  occ. eigenvalues --   -0.59920  -0.54512  -0.52248  -0.44816  -0.39500
 Alpha  occ. eigenvalues --   -0.39210
 Alpha virt. eigenvalues --    0.03683   0.07459   0.08184   0.10189   0.11591
 Alpha virt. eigenvalues --    0.11893   0.15477   0.16486   0.16735   0.19947
 Alpha virt. eigenvalues --    0.20086   0.25577   0.32722   0.33919   0.35109

 Mulliken charges:
               1
     1  C   -0.084452
     2  C   -0.001673
     3  N   -0.197773
     4  H    0.089738
     5  H    0.101409
     6  H    0.092751
 Sum of Mulliken charges =   0.00000

 Dipole moment (field-independent basis, Debye):
    X=             -4.0966    Y=              0.0047    Z=             -0.0051  Tot=              4.0966
 Quadrupole moment (field-independent basis, Debye-Ang):
   XX=            -20.9057   YY=            -17.6491   ZZ=            -17.8643
   XY=             -0.0250   XZ=             -0.1522   YZ=              0.0638

 Normal termination of Gaussian 09 at Wed Aug 26 13:12:13 2020.
