 Gaussian 09, Revision D.01,
 Gaussian 09:  ES64L-G09RevD.01 24-Apr-2013

 --------------------
 #p B2PLYPD3/Def2QZVP
 --------------------

 ------------
 cyanomethane
 ------------
 Symbolic Z-matrix:
 Charge =  0 Multiplicity = 1

                         Standard orientation:
 ---------------------------------------------------------------------
 Center     Atomic      Atomic             Coordinates (Angstroms)
 Number     Number       Type             X           Y           Z
 ---------------------------------------------------------------------
      1          6           0       -1.178748    0.015012    0.012080
      2          6           0        0.292678   -0.005826   -0.042602
      3          7           0        1.431505    0.001380    0.018838
      4          1           0       -1.568259    1.051175   -0.010517
      5          1           0       -1.539179   -0.534269    0.933053
      6          1           0       -1.596672   -0.581680   -0.871265
 ---------------------------------------------------------------------

 SCF Done:  E(RB2PLYPD3) =  -132.531702057     A.U. after   12 cycles
 E2(B2PLYPD3) =    -0.1798676771D+00 E(B2PLYPD3) =    -0.13271156973389D+03

 The electronic state is 1-A.
 Alpha  occ. eigenvalues --  -14.83866 -10.68371 -10.65957  -1.04687  -0.88012
 Alpha  occ. eigenvalues --   -0.58978  -0.53664  -0.52133  -0.44766  -0.39529
 Alpha  occ. eigenvalues --   -0.39230
 Alpha virt. eigenvalues --    0.03510   0.07553   0.07858   0.10182   0.11509
 Alpha virt. eigenvalues --    0.11799   0.15248   0.16046   0.16871   0.19952
 Alpha virt. eigenvalues --    0.20028   0.25228   0.32298   0.33589   0.34599

 Mulliken charges:
               1
     1  C   -0.099272
     2  C   -0.001567
     3  N   -0.196814
     4  H    0.104259
     5  H    0.099537
     6  H    0.093858
 Sum of Mulliken charges =   0.00000

 Dipole moment (field-independent basis, Debye):
    X=             -4.0870    Y=             -0.0160    Z=             -0.0230  Tot=              4.0871
 Quadrupole moment (field-independent basis, Debye-Ang):
   XX=            -21.0883   YY=            -17.6479   ZZ=            -17.8813
   XY=              0.0326   XZ=             -0.0828   YZ=             -0.0248

 Normal termination of Gaussian 09 at Wed Aug 26 12:21:44 2020.
