 Gaussian 09, Revision D.01,
 Gaussian 09:  ES64L-G09RevD.01 24-Apr-2013

 --------------------
 #p B2PLYPD3/Def2QZVP
 --------------------

 ------------
 cyanomethane
 ------------
 Symbolic Z-matrix:
 Charge =  0 Multiplicity = 1

                         Standard orientation:
 ---------------------------------------------------------------------
 Center     Atomic      Atomic             Coordinates (Angstroms)
 Number     Number       Type             X           Y           Z
 ---------------------------------------------------------------------
      1          6           0        1.178739   -0.031690    0.005654
      2          6           0       -0.263784    0.024560   -0.031585
      3          7           0       -1.418512   -0.016822    0.023050
      4          1           0        1.591651   -0.163414    1.007221
      5          1           0        1.365960    1.067359   -0.320319
      6          1           0        1.482247   -0.743406   -0.692667
 ---------------------------------------------------------------------

 SCF Done:  E(RB2PLYPD3) =  -132.524121613     A.U. after   12 cycles
 E2(B2PLYPD3) =    -0.1810706969D+00 E(B2PLYPD3) =    -0.13270519231017D+03

 The electronic state is 1-A.
 Alpha  occ. eigenvalues --  -14.83952 -10.67350 -10.66044  -1.03946  -0.89691
 Alpha  occ. eigenvalues --   -0.59278  -0.55944  -0.52593  -0.44554  -0.39014
 Alpha  occ. eigenvalues --   -0.38261
 Alpha virt. eigenvalues --    0.03631   0.07414   0.08424   0.10013   0.11232
 Alpha virt. eigenvalues --    0.11872   0.14676   0.15396   0.16994   0.20135
 Alpha virt. eigenvalues --    0.20227   0.25651   0.31739   0.33405   0.35564

 Mulliken charges:
               1
     1  C   -0.110824
     2  C    0.003149
     3  N   -0.211462
     4  H    0.106744
     5  H    0.099783
     6  H    0.112610
 Sum of Mulliken charges =   0.00000

 Dipole moment (field-independent basis, Debye):
    X=              4.0772    Y=              0.0365    Z=             -0.0214  Tot=              4.0775
 Quadrupole moment (field-independent basis, Debye-Ang):
   XX=            -21.4987   YY=            -17.6028   ZZ=            -17.6710
   XY=             -0.1994   XZ=              0.2780   YZ=              0.1072

 Normal termination of Gaussian 09 at Wed Aug 26 20:14:17 2020.
