 Gaussian 09, Revision D.01,
 Gaussian 09:  ES64L-G09RevD.01 24-Apr-2013

 --------------------
 #p B2PLYPD3/Def2QZVP
 --------------------

 ------------
 cyanomethane
 ------------
 Symbolic Z-matrix:
 Charge =  0 Multiplicity = 1

                         Standard orientation:
 ---------------------------------------------------------------------
 Center     Atomic      Atomic             Coordinates (Angstroms)
 Number     Number       Type             X           Y           Z
 ---------------------------------------------------------------------
      1          6           0       -1.176886   -0.012509   -0.023103
      2          6           0        0.256804    0.006685    0.072212
      3          7           0        1.433607    0.006271   -0.034061
      4          1           0       -1.506493   -0.106851    0.913534
      5          1           0       -1.407855   -0.861314   -0.562851
      6          1           0       -1.600412    0.959213   -0.406911
 ---------------------------------------------------------------------

 SCF Done:  E(RB2PLYPD3) =  -132.519217576     A.U. after   12 cycles
 E2(B2PLYPD3) =    -0.1826342343D+00 E(B2PLYPD3) =    -0.13270185181042D+03

 The electronic state is 1-A.
 Alpha  occ. eigenvalues --  -14.84806 -10.66788 -10.65835  -1.03121  -0.90838
 Alpha  occ. eigenvalues --   -0.59942  -0.56463  -0.54154  -0.44788  -0.38417
 Alpha  occ. eigenvalues --   -0.38228
 Alpha virt. eigenvalues --    0.03569   0.07260   0.08454   0.10125   0.11120
 Alpha virt. eigenvalues --    0.11191   0.14825   0.15700   0.16962   0.20210
 Alpha virt. eigenvalues --    0.20261   0.26007   0.32768   0.34213   0.35542

 Mulliken charges:
               1
     1  C   -0.084052
     2  C    0.004289
     3  N   -0.221360
     4  H    0.097436
     5  H    0.105593
     6  H    0.098094
 Sum of Mulliken charges =   0.00000

 Dipole moment (field-independent basis, Debye):
    X=             -4.1456    Y=             -0.0273    Z=              0.0986  Tot=              4.1469
 Quadrupole moment (field-independent basis, Debye-Ang):
   XX=            -21.0807   YY=            -17.5108   ZZ=            -17.9275
   XY=             -0.1466   XZ=              0.0027   YZ=              0.0633

 Normal termination of Gaussian 09 at Wed Aug 26 21:36:46 2020.
