 Gaussian 09, Revision D.01,
 Gaussian 09:  ES64L-G09RevD.01 24-Apr-2013

 --------------------
 #p B2PLYPD3/Def2QZVP
 --------------------

 ------------
 cyanomethane
 ------------
 Symbolic Z-matrix:
 Charge =  0 Multiplicity = 1

                         Standard orientation:
 ---------------------------------------------------------------------
 Center     Atomic      Atomic             Coordinates (Angstroms)
 Number     Number       Type             X           Y           Z
 ---------------------------------------------------------------------
      1          6           0       -1.176045    0.010817    0.010870
      2          6           0        0.291472   -0.034750   -0.046415
      3          7           0        1.443533    0.025701    0.026020
      4          1           0       -1.624948   -0.108140    1.076702
      5          1           0       -1.490020   -0.922927   -0.595231
      6          1           0       -1.682320    0.994760   -0.450344
 ---------------------------------------------------------------------

 SCF Done:  E(RB2PLYPD3) =  -132.517846616     A.U. after   12 cycles
 E2(B2PLYPD3) =    -0.1821470057D+00 E(B2PLYPD3) =    -0.13269999362218D+03

 The electronic state is 1-A.
 Alpha  occ. eigenvalues --  -14.84481 -10.69644 -10.66613  -1.04193  -0.87240
 Alpha  occ. eigenvalues --   -0.59021  -0.52154  -0.51278  -0.44975  -0.38987
 Alpha  occ. eigenvalues --   -0.38842
 Alpha virt. eigenvalues --    0.03067   0.06191   0.07256   0.09987   0.11491
 Alpha virt. eigenvalues --    0.11734   0.15154   0.15618   0.17547   0.19926
 Alpha virt. eigenvalues --    0.20273   0.25428   0.31611   0.32900   0.33417

 Mulliken charges:
               1
     1  C   -0.109397
     2  C    0.008790
     3  N   -0.202108
     4  H    0.101921
     5  H    0.099920
     6  H    0.100875
 Sum of Mulliken charges =   0.00000

 Dipole moment (field-independent basis, Debye):
    X=             -4.0828    Y=             -0.0572    Z=             -0.0211  Tot=              4.0833
 Quadrupole moment (field-independent basis, Debye-Ang):
   XX=            -21.0787   YY=            -17.8272   ZZ=            -17.9937
   XY=             -0.2465   XZ=             -0.2344   YZ=              0.0009

 Normal termination of Gaussian 09 at Wed Aug 26 21:33:17 2020.
