 Gaussian 09, Revision D.01,
 Gaussian 09:  ES64L-G09RevD.01 24-Apr-2013

 --------------------
 #p B2PLYPD3/Def2QZVP
 --------------------

 ------------
 cyanomethane
 ------------
 Symbolic Z-matrix:
 Charge =  0 Multiplicity = 1

                         Standard orientation:
 ---------------------------------------------------------------------
 Center     Atomic      Atomic             Coordinates (Angstroms)
 Number     Number       Type             X           Y           Z
 ---------------------------------------------------------------------
      1          6           0        1.167298    0.003997   -0.017209
      2          6           0       -0.261744    0.038951   -0.020282
      3          7           0       -1.423044   -0.023002    0.028441
      4          1           0        1.735936   -0.212703    0.983149
      5          1           0        1.401940    1.013825   -0.335108
      6          1           0        1.390109   -0.897796   -0.622181
 ---------------------------------------------------------------------

 SCF Done:  E(RB2PLYPD3) =  -132.517995063     A.U. after   13 cycles
 E2(B2PLYPD3) =    -0.1821924028D+00 E(B2PLYPD3) =    -0.13270018746551D+03

 The electronic state is 1-A.
 Alpha  occ. eigenvalues --  -14.84267 -10.67863 -10.66299  -1.03777  -0.89514
 Alpha  occ. eigenvalues --   -0.59193  -0.56475  -0.50981  -0.44690  -0.38685
 Alpha  occ. eigenvalues --   -0.38093
 Alpha virt. eigenvalues --    0.03393   0.06114   0.08358   0.10043   0.11216
 Alpha virt. eigenvalues --    0.12026   0.15001   0.15383   0.16991   0.20039
 Alpha virt. eigenvalues --    0.20334   0.25817   0.32225   0.32907   0.34928

 Mulliken charges:
               1
     1  C   -0.105433
     2  C    0.004046
     3  N   -0.213175
     4  H    0.092007
     5  H    0.112250
     6  H    0.110304
 Sum of Mulliken charges =   0.00000

 Dipole moment (field-independent basis, Debye):
    X=              4.0905    Y=              0.0036    Z=             -0.0191  Tot=              4.0906
 Quadrupole moment (field-independent basis, Debye-Ang):
   XX=            -21.3402   YY=            -17.3336   ZZ=            -18.1672
   XY=             -0.2278   XZ=              0.4894   YZ=              0.0235

 Normal termination of Gaussian 09 at Wed Aug 26 22:17:47 2020.
