 Gaussian 09, Revision D.01,
 Gaussian 09:  ES64L-G09RevD.01 24-Apr-2013

 --------------------
 #p B2PLYPD3/Def2QZVP
 --------------------

 ------------
 cyanomethane
 ------------
 Symbolic Z-matrix:
 Charge =  0 Multiplicity = 1

                         Standard orientation:
 ---------------------------------------------------------------------
 Center     Atomic      Atomic             Coordinates (Angstroms)
 Number     Number       Type             X           Y           Z
 ---------------------------------------------------------------------
      1          6           0       -1.178653    0.021181    0.006528
      2          6           0        0.274186    0.062736   -0.019612
      3          7           0        1.453833   -0.043884    0.003229
      4          1           0       -1.483160    1.003656   -0.106412
      5          1           0       -1.544953   -0.477443    0.945068
      6          1           0       -1.721920   -0.722530   -0.782751
 ---------------------------------------------------------------------

 SCF Done:  E(RB2PLYPD3) =  -132.514397945     A.U. after   12 cycles
 E2(B2PLYPD3) =    -0.1840899307D+00 E(B2PLYPD3) =    -0.13269848787613D+03

 The electronic state is 1-A.
 Alpha  occ. eigenvalues --  -14.85235 -10.68139 -10.67303  -1.03071  -0.88846
 Alpha  occ. eigenvalues --   -0.59905  -0.55803  -0.50299  -0.45059  -0.38613
 Alpha  occ. eigenvalues --   -0.37942
 Alpha virt. eigenvalues --    0.03022   0.05656   0.07926   0.09845   0.10736
 Alpha virt. eigenvalues --    0.11856   0.15155   0.16084   0.16950   0.19917
 Alpha virt. eigenvalues --    0.20468   0.25542   0.31350   0.33109   0.34946

 Mulliken charges:
               1
     1  C   -0.085275
     2  C    0.006225
     3  N   -0.215991
     4  H    0.109175
     5  H    0.097355
     6  H    0.088512
 Sum of Mulliken charges =   0.00000

 Dipole moment (field-independent basis, Debye):
    X=             -4.1440    Y=              0.0239    Z=              0.0441  Tot=              4.1443
 Quadrupole moment (field-independent basis, Debye-Ang):
   XX=            -20.9421   YY=            -17.6472   ZZ=            -18.2593
   XY=              0.4613   XZ=             -0.0156   YZ=             -0.1031

 Normal termination of Gaussian 09 at Wed Aug 26 20:23:31 2020.
