 Gaussian 09, Revision D.01,
 Gaussian 09:  ES64L-G09RevD.01 24-Apr-2013

 --------------------
 #p B2PLYPD3/Def2QZVP
 --------------------

 ------------
 cyanomethane
 ------------
 Symbolic Z-matrix:
 Charge =  0 Multiplicity = 1

                         Standard orientation:
 ---------------------------------------------------------------------
 Center     Atomic      Atomic             Coordinates (Angstroms)
 Number     Number       Type             X           Y           Z
 ---------------------------------------------------------------------
      1          6           0       -1.159234   -0.002097   -0.001129
      2          6           0        0.272296    0.027858   -0.017170
      3          7           0        1.428664   -0.020544    0.011070
      4          1           0       -1.472829    0.947810   -0.379329
      5          1           0       -1.596445   -0.130420    1.010238
      6          1           0       -1.609750   -0.828150   -0.598604
 ---------------------------------------------------------------------

 SCF Done:  E(RB2PLYPD3) =  -132.531926866     A.U. after   12 cycles
 E2(B2PLYPD3) =    -0.1809958275D+00 E(B2PLYPD3) =    -0.13271292269352D+03

 The electronic state is 1-A.
 Alpha  occ. eigenvalues --  -14.84324 -10.67077 -10.66304  -1.04104  -0.89506
 Alpha  occ. eigenvalues --   -0.60465  -0.54514  -0.52743  -0.44903  -0.38917
 Alpha  occ. eigenvalues --   -0.38795
 Alpha virt. eigenvalues --    0.03669   0.07038   0.08045   0.10056   0.11436
 Alpha virt. eigenvalues --    0.11763   0.15506   0.16018   0.17099   0.20028
 Alpha virt. eigenvalues --    0.20238   0.25882   0.32953   0.34292   0.34660

 Mulliken charges:
               1
     1  C   -0.079562
     2  C    0.002299
     3  N   -0.207446
     4  H    0.098222
     5  H    0.092314
     6  H    0.094174
 Sum of Mulliken charges =   0.00000

 Dipole moment (field-independent basis, Debye):
    X=             -4.1218    Y=              0.0361    Z=             -0.0061  Tot=              4.1220
 Quadrupole moment (field-independent basis, Debye-Ang):
   XX=            -20.8922   YY=            -17.6986   ZZ=            -17.8857
   XY=              0.2080   XZ=             -0.1210   YZ=             -0.0268

 Normal termination of Gaussian 09 at Wed Aug 26 10:52:04 2020.
