 Gaussian 09, Revision D.01,
 Gaussian 09:  ES64L-G09RevD.01 24-Apr-2013

 --------------------
 #p B2PLYPD3/Def2QZVP
 --------------------

 ------------
 cyanomethane
 ------------
 Symbolic Z-matrix:
 Charge =  0 Multiplicity = 1

                         Standard orientation:
 ---------------------------------------------------------------------
 Center     Atomic      Atomic             Coordinates (Angstroms)
 Number     Number       Type             X           Y           Z
 ---------------------------------------------------------------------
      1          6           0       -1.175044    0.001011    0.008222
      2          6           0        0.282551   -0.005157   -0.022961
      3          7           0        1.436687    0.004467    0.011745
      4          1           0       -1.568457   -0.246379    0.975048
      5          1           0       -1.543408   -0.728087   -0.693919
      6          1           0       -1.589991    0.968074   -0.274906
 ---------------------------------------------------------------------

 SCF Done:  E(RB2PLYPD3) =  -132.535185997     A.U. after   11 cycles
 E2(B2PLYPD3) =    -0.1804075018D+00 E(B2PLYPD3) =    -0.13271559349905D+03

 The electronic state is 1-A.
 Alpha  occ. eigenvalues --  -14.84282 -10.66808 -10.66349  -1.04162  -0.89358
 Alpha  occ. eigenvalues --   -0.60290  -0.54008  -0.53696  -0.44874  -0.39155
 Alpha  occ. eigenvalues --   -0.39104
 Alpha virt. eigenvalues --    0.03791   0.07779   0.08079   0.10161   0.11435
 Alpha virt. eigenvalues --    0.11478   0.15478   0.16213   0.16886   0.20061
 Alpha virt. eigenvalues --    0.20115   0.25396   0.32810   0.34706   0.34989

 Mulliken charges:
               1
     1  C   -0.072995
     2  C    0.000314
     3  N   -0.205776
     4  H    0.094052
     5  H    0.092473
     6  H    0.091933
 Sum of Mulliken charges =   0.00000

 Dipole moment (field-independent basis, Debye):
    X=             -4.1378    Y=             -0.0133    Z=             -0.0180  Tot=              4.1379
 Quadrupole moment (field-independent basis, Debye-Ang):
   XX=            -20.8244   YY=            -17.7887   ZZ=            -17.7881
   XY=             -0.0413   XZ=             -0.0710   YZ=              0.0008

 Normal termination of Gaussian 09 at Wed Aug 26 09:49:58 2020.
