 Gaussian 09, Revision D.01,
 Gaussian 09:  ES64L-G09RevD.01 24-Apr-2013

 --------------------
 #p B2PLYPD3/Def2QZVP
 --------------------

 ------------
 cyanomethane
 ------------
 Symbolic Z-matrix:
 Charge =  0 Multiplicity = 1

                         Standard orientation:
 ---------------------------------------------------------------------
 Center     Atomic      Atomic             Coordinates (Angstroms)
 Number     Number       Type             X           Y           Z
 ---------------------------------------------------------------------
      1          6           0       -1.200332   -0.013724    0.001198
      2          6           0        0.260804   -0.045369    0.016241
      3          7           0        1.444810    0.015022   -0.003609
      4          1           0       -1.546188    0.193085    0.970583
      5          1           0       -1.573733   -0.898809   -0.442480
      6          1           0       -1.356578    0.955129   -0.607469
 ---------------------------------------------------------------------

 SCF Done:  E(RB2PLYPD3) =  -132.523098159     A.U. after   13 cycles
 E2(B2PLYPD3) =    -0.1833652932D+00 E(B2PLYPD3) =    -0.13270646345243D+03

 The electronic state is 1-A.
 Alpha  occ. eigenvalues --  -14.84791 -10.67365 -10.67012  -1.02760  -0.89640
 Alpha  occ. eigenvalues --   -0.59192  -0.56243  -0.52946  -0.44609  -0.38424
 Alpha  occ. eigenvalues --   -0.37823
 Alpha virt. eigenvalues --    0.03535   0.07553   0.07833   0.10141   0.10686
 Alpha virt. eigenvalues --    0.11452   0.14719   0.15365   0.16265   0.20153
 Alpha virt. eigenvalues --    0.20357   0.25203   0.32026   0.32739   0.35647

 Mulliken charges:
               1
     1  C   -0.102951
     2  C    0.003013
     3  N   -0.223492
     4  H    0.106206
     5  H    0.112145
     6  H    0.105079
 Sum of Mulliken charges =   0.00000

 Dipole moment (field-independent basis, Debye):
    X=             -4.1621    Y=              0.0152    Z=              0.0224  Tot=              4.1622
 Quadrupole moment (field-independent basis, Debye-Ang):
   XX=            -21.4255   YY=            -17.5842   ZZ=            -17.9184
   XY=              0.0410   XZ=             -0.1219   YZ=              0.1067

 Normal termination of Gaussian 09 at Wed Aug 26 21:25:13 2020.
