 Gaussian 09, Revision D.01,
 Gaussian 09:  ES64L-G09RevD.01 24-Apr-2013

 --------------------
 #p B2PLYPD3/Def2QZVP
 --------------------

 ------------
 cyanomethane
 ------------
 Symbolic Z-matrix:
 Charge =  0 Multiplicity = 1

                         Standard orientation:
 ---------------------------------------------------------------------
 Center     Atomic      Atomic             Coordinates (Angstroms)
 Number     Number       Type             X           Y           Z
 ---------------------------------------------------------------------
      1          6           0       -1.145991    0.017411   -0.005401
      2          6           0        0.272876    0.033429   -0.032020
      3          7           0        1.424924   -0.029051    0.021136
      4          1           0       -1.466004    1.101152    0.063021
      5          1           0       -1.680293   -0.629431    0.898504
      6          1           0       -1.589479   -0.573408   -0.884946
 ---------------------------------------------------------------------

 SCF Done:  E(RB2PLYPD3) =  -132.514858585     A.U. after   12 cycles
 E2(B2PLYPD3) =    -0.1820847700D+00 E(B2PLYPD3) =    -0.13269694335485D+03

 The electronic state is 1-A.
 Alpha  occ. eigenvalues --  -14.84329 -10.69041 -10.66245  -1.04303  -0.88400
 Alpha  occ. eigenvalues --   -0.59697  -0.54223  -0.50167  -0.44975  -0.38966
 Alpha  occ. eigenvalues --   -0.38237
 Alpha virt. eigenvalues --    0.02958   0.05718   0.07364   0.10001   0.11462
 Alpha virt. eigenvalues --    0.12305   0.15282   0.16308   0.16924   0.19893
 Alpha virt. eigenvalues --    0.20312   0.26004   0.31689   0.32602   0.34190

 Mulliken charges:
               1
     1  C   -0.101313
     2  C    0.006164
     3  N   -0.202932
     4  H    0.108122
     5  H    0.090577
     6  H    0.099382
 Sum of Mulliken charges =   0.00000

 Dipole moment (field-independent basis, Debye):
    X=             -4.0697    Y=              0.0088    Z=             -0.0509  Tot=              4.0700
 Quadrupole moment (field-independent basis, Debye-Ang):
   XX=            -21.0816   YY=            -17.5227   ZZ=            -18.2042
   XY=              0.4298   XZ=             -0.1448   YZ=              0.1037

 Normal termination of Gaussian 09 at Wed Aug 26 19:11:15 2020.
