 Gaussian 09, Revision D.01,
 Gaussian 09:  ES64L-G09RevD.01 24-Apr-2013

 --------------------
 #p B2PLYPD3/Def2QZVP
 --------------------

 ------------
 cyanomethane
 ------------
 Symbolic Z-matrix:
 Charge =  0 Multiplicity = 1

                         Standard orientation:
 ---------------------------------------------------------------------
 Center     Atomic      Atomic             Coordinates (Angstroms)
 Number     Number       Type             X           Y           Z
 ---------------------------------------------------------------------
      1          6           0        1.173986   -0.011920   -0.004194
      2          6           0       -0.276354    0.030159    0.013896
      3          7           0       -1.448271   -0.014218   -0.005501
      4          1           0        1.599470   -0.401771    0.938488
      5          1           0        1.585303    1.016752   -0.137099
      6          1           0        1.567330   -0.624887   -0.821094
 ---------------------------------------------------------------------

 SCF Done:  E(RB2PLYPD3) =  -132.531921118     A.U. after   12 cycles
 E2(B2PLYPD3) =    -0.1823961201D+00 E(B2PLYPD3) =    -0.13271431723807D+03

 The electronic state is 1-A.
 Alpha  occ. eigenvalues --  -14.84865 -10.67579 -10.66953  -1.03495  -0.88935
 Alpha  occ. eigenvalues --   -0.60412  -0.53478  -0.53053  -0.45011  -0.38690
 Alpha  occ. eigenvalues --   -0.38595
 Alpha virt. eigenvalues --    0.03632   0.07118   0.07218   0.10083   0.11355
 Alpha virt. eigenvalues --    0.11386   0.15433   0.16184   0.16816   0.20133
 Alpha virt. eigenvalues --    0.20185   0.25543   0.32411   0.34182   0.34653

 Mulliken charges:
               1
     1  C   -0.076991
     2  C    0.004996
     3  N   -0.212777
     4  H    0.094846
     5  H    0.092420
     6  H    0.097506
 Sum of Mulliken charges =   0.00000

 Dipole moment (field-independent basis, Debye):
    X=              4.1556    Y=              0.0169    Z=              0.0042  Tot=              4.1556
 Quadrupole moment (field-independent basis, Debye-Ang):
   XX=            -20.8512   YY=            -17.9004   ZZ=            -17.8868
   XY=             -0.0703   XZ=             -0.0112   YZ=              0.0130

 Normal termination of Gaussian 09 at Wed Aug 26 11:17:03 2020.
