 Gaussian 09, Revision D.01,
 Gaussian 09:  ES64L-G09RevD.01 24-Apr-2013

 --------------------
 #p B2PLYPD3/Def2QZVP
 --------------------

 ------------
 cyanomethane
 ------------
 Symbolic Z-matrix:
 Charge =  0 Multiplicity = 1

                         Standard orientation:
 ---------------------------------------------------------------------
 Center     Atomic      Atomic             Coordinates (Angstroms)
 Number     Number       Type             X           Y           Z
 ---------------------------------------------------------------------
      1          6           0        1.208711    0.014942    0.003528
      2          6           0       -0.285094   -0.050116    0.000163
      3          7           0       -1.436253    0.023403    0.004693
      4          1           0        1.570565   -0.108056    1.048649
      5          1           0        1.461600    1.032204   -0.448130
      6          1           0        1.479908   -0.876922   -0.655518
 ---------------------------------------------------------------------

 SCF Done:  E(RB2PLYPD3) =  -132.526666817     A.U. after   12 cycles
 E2(B2PLYPD3) =    -0.1811308353D+00 E(B2PLYPD3) =    -0.13270779765212D+03

 The electronic state is 1-A.
 Alpha  occ. eigenvalues --  -14.83953 -10.68887 -10.66119  -1.03922  -0.87890
 Alpha  occ. eigenvalues --   -0.57354  -0.53616  -0.53295  -0.44447  -0.39022
 Alpha  occ. eigenvalues --   -0.38881
 Alpha virt. eigenvalues --    0.03360   0.07740   0.08050   0.10163   0.11309
 Alpha virt. eigenvalues --    0.11344   0.14748   0.15194   0.16177   0.20055
 Alpha virt. eigenvalues --    0.20098   0.24736   0.31893   0.33339   0.33847

 Mulliken charges:
               1
     1  C   -0.125038
     2  C   -0.002331
     3  N   -0.206188
     4  H    0.110412
     5  H    0.114233
     6  H    0.108910
 Sum of Mulliken charges =   0.00000

 Dipole moment (field-independent basis, Debye):
    X=              4.0843    Y=             -0.0328    Z=              0.0026  Tot=              4.0845
 Quadrupole moment (field-independent basis, Debye-Ang):
   XX=            -21.6532   YY=            -17.5982   ZZ=            -17.7388
   XY=              0.0958   XZ=              0.1473   YZ=             -0.0178

 Normal termination of Gaussian 09 at Wed Aug 26 21:22:27 2020.
