 Gaussian 09, Revision D.01,
 Gaussian 09:  ES64L-G09RevD.01 24-Apr-2013

 --------------------
 #p B2PLYPD3/Def2QZVP
 --------------------

 ------------
 cyanomethane
 ------------
 Symbolic Z-matrix:
 Charge =  0 Multiplicity = 1

                         Standard orientation:
 ---------------------------------------------------------------------
 Center     Atomic      Atomic             Coordinates (Angstroms)
 Number     Number       Type             X           Y           Z
 ---------------------------------------------------------------------
      1          6           0        1.145280   -0.005869   -0.015993
      2          6           0       -0.260869   -0.014480    0.053207
      3          7           0       -1.433589    0.013954   -0.021064
      4          1           0        1.470542   -0.813893   -0.562123
      5          1           0        1.640779   -0.053871    0.935727
      6          1           0        1.617336    0.892178   -0.449442
 ---------------------------------------------------------------------

 SCF Done:  E(RB2PLYPD3) =  -132.526052828     A.U. after   12 cycles
 E2(B2PLYPD3) =    -0.1823404193D+00 E(B2PLYPD3) =    -0.13270839324760D+03

 The electronic state is 1-A.
 Alpha  occ. eigenvalues --  -14.84894 -10.66813 -10.65949  -1.03564  -0.90538
 Alpha  occ. eigenvalues --   -0.62160  -0.55258  -0.52862  -0.45105  -0.38589
 Alpha  occ. eigenvalues --   -0.38330
 Alpha virt. eigenvalues --    0.03714   0.06827   0.07637   0.10034   0.11351
 Alpha virt. eigenvalues --    0.11688   0.15742   0.16360   0.17145   0.20127
 Alpha virt. eigenvalues --    0.20323   0.26402   0.33066   0.34473   0.35459

 Mulliken charges:
               1
     1  C   -0.053016
     2  C    0.008898
     3  N   -0.215674
     4  H    0.093438
     5  H    0.081548
     6  H    0.084806
 Sum of Mulliken charges =   0.00000

 Dipole moment (field-independent basis, Debye):
    X=              4.1727    Y=             -0.0269    Z=              0.0309  Tot=              4.1729
 Quadrupole moment (field-independent basis, Debye-Ang):
   XX=            -20.5477   YY=            -17.8172   ZZ=            -17.9383
   XY=              0.1597   XZ=             -0.0158   YZ=              0.0827

 Normal termination of Gaussian 09 at Wed Aug 26 22:43:24 2020.
