 Gaussian 09, Revision D.01,
 Gaussian 09:  ES64L-G09RevD.01 24-Apr-2013

 --------------------
 #p B2PLYPD3/Def2QZVP
 --------------------

 ------------
 cyanomethane
 ------------
 Symbolic Z-matrix:
 Charge =  0 Multiplicity = 1

                         Standard orientation:
 ---------------------------------------------------------------------
 Center     Atomic      Atomic             Coordinates (Angstroms)
 Number     Number       Type             X           Y           Z
 ---------------------------------------------------------------------
      1          6           0        1.169753    0.005062    0.004448
      2          6           0       -0.274236   -0.005717   -0.016722
      3          7           0       -1.430986    0.000503    0.004902
      4          1           0        1.527382    1.044412   -0.096577
      5          1           0        1.600669   -0.620300   -0.802269
      6          1           0        1.515747   -0.423699    0.938182
 ---------------------------------------------------------------------

 SCF Done:  E(RB2PLYPD3) =  -132.534678803     A.U. after   11 cycles
 E2(B2PLYPD3) =    -0.1807959420D+00 E(B2PLYPD3) =    -0.13271547474530D+03

 The electronic state is 1-A.
 Alpha  occ. eigenvalues --  -14.84234 -10.67272 -10.66263  -1.04045  -0.89274
 Alpha  occ. eigenvalues --   -0.59833  -0.54196  -0.53386  -0.44804  -0.38953
 Alpha  occ. eigenvalues --   -0.38865
 Alpha virt. eigenvalues --    0.03721   0.07575   0.07812   0.10156   0.11460
 Alpha virt. eigenvalues --    0.11600   0.15442   0.16191   0.16446   0.20082
 Alpha virt. eigenvalues --    0.20136   0.25590   0.32713   0.34406   0.34552

 Mulliken charges:
               1
     1  C   -0.086411
     2  C   -0.000061
     3  N   -0.207473
     4  H    0.100233
     5  H    0.095000
     6  H    0.098712
 Sum of Mulliken charges =   0.00000

 Dipole moment (field-independent basis, Debye):
    X=              4.1228    Y=             -0.0142    Z=              0.0057  Tot=              4.1229
 Quadrupole moment (field-independent basis, Debye-Ang):
   XX=            -21.0373   YY=            -17.6655   ZZ=            -17.8451
   XY=             -0.0670   XZ=             -0.0028   YZ=             -0.0228

 Normal termination of Gaussian 09 at Wed Aug 26 09:50:10 2020.
