 Gaussian 09, Revision D.01,
 Gaussian 09:  ES64L-G09RevD.01 24-Apr-2013

 --------------------
 #p B2PLYPD3/Def2QZVP
 --------------------

 ------------
 cyanomethane
 ------------
 Symbolic Z-matrix:
 Charge =  0 Multiplicity = 1

                         Standard orientation:
 ---------------------------------------------------------------------
 Center     Atomic      Atomic             Coordinates (Angstroms)
 Number     Number       Type             X           Y           Z
 ---------------------------------------------------------------------
      1          6           0        1.146196    0.016362   -0.018734
      2          6           0       -0.280034    0.028689   -0.039365
      3          7           0       -1.426489   -0.023854    0.028453
      4          1           0        1.712526   -0.474796    0.852980
      5          1           0        1.495980    0.908679    0.027935
      6          1           0        1.579945   -0.537219   -0.731496
 ---------------------------------------------------------------------

 SCF Done:  E(RB2PLYPD3) =  -132.506852623     A.U. after   12 cycles
 E2(B2PLYPD3) =    -0.1800566869D+00 E(B2PLYPD3) =    -0.13268690931022D+03

 The electronic state is 1-A.
 Alpha  occ. eigenvalues --  -14.84327 -10.66260 -10.64964  -1.04615  -0.91127
 Alpha  occ. eigenvalues --   -0.62800  -0.57535  -0.51052  -0.45114  -0.39681
 Alpha  occ. eigenvalues --   -0.38775
 Alpha virt. eigenvalues --    0.03428   0.07285   0.09054   0.10054   0.11085
 Alpha virt. eigenvalues --    0.12140   0.15848   0.16998   0.17545   0.19878
 Alpha virt. eigenvalues --    0.20435   0.26000   0.32676   0.34296   0.36678

 Mulliken charges:
               1
     1  C   -0.049622
     2  C    0.011908
     3  N   -0.203438
     4  H    0.064216
     5  H    0.092742
     6  H    0.084194
 Sum of Mulliken charges =   0.00000

 Dipole moment (field-independent basis, Debye):
    X=              4.1456    Y=              0.0272    Z=             -0.0538  Tot=              4.1460
 Quadrupole moment (field-independent basis, Debye-Ang):
   XX=            -20.2239   YY=            -17.6546   ZZ=            -18.0496
   XY=             -0.2763   XZ=              0.2430   YZ=              0.1515

 Normal termination of Gaussian 09 at Wed Aug 26 23:07:36 2020.
