 Gaussian 09, Revision D.01,
 Gaussian 09:  ES64L-G09RevD.01 24-Apr-2013

 --------------------
 #p B2PLYPD3/Def2QZVP
 --------------------

 ------------
 cyanomethane
 ------------
 Symbolic Z-matrix:
 Charge =  0 Multiplicity = 1

                         Standard orientation:
 ---------------------------------------------------------------------
 Center     Atomic      Atomic             Coordinates (Angstroms)
 Number     Number       Type             X           Y           Z
 ---------------------------------------------------------------------
      1          6           0        1.184928    0.004262   -0.020641
      2          6           0       -0.291919    0.015730   -0.047068
      3          7           0       -1.442836   -0.015437    0.040937
      4          1           0        1.788056   -0.368242    0.996045
      5          1           0        1.461931    1.065538   -0.138228
      6          1           0        1.491810   -0.709184   -0.738124
 ---------------------------------------------------------------------

 SCF Done:  E(RB2PLYPD3) =  -132.514714008     A.U. after   13 cycles
 E2(B2PLYPD3) =    -0.1816053556D+00 E(B2PLYPD3) =    -0.13269631936384D+03

 The electronic state is 1-A.
 Alpha  occ. eigenvalues --  -14.84385 -10.68553 -10.66486  -1.04194  -0.88230
 Alpha  occ. eigenvalues --   -0.59016  -0.55738  -0.49806  -0.44880  -0.39379
 Alpha  occ. eigenvalues --   -0.38611
 Alpha virt. eigenvalues --    0.02830   0.06236   0.08641   0.10138   0.10994
 Alpha virt. eigenvalues --    0.11866   0.15158   0.15733   0.17265   0.19929
 Alpha virt. eigenvalues --    0.20320   0.25122   0.30870   0.32999   0.35267

 Mulliken charges:
               1
     1  C   -0.100331
     2  C    0.002593
     3  N   -0.202754
     4  H    0.085322
     5  H    0.107005
     6  H    0.108165
 Sum of Mulliken charges =   0.00000

 Dipole moment (field-independent basis, Debye):
    X=              4.0953    Y=              0.0197    Z=             -0.0856  Tot=              4.0962
 Quadrupole moment (field-independent basis, Debye-Ang):
   XX=            -21.0090   YY=            -17.5960   ZZ=            -18.1633
   XY=             -0.2218   XZ=              0.4204   YZ=              0.1525

 Normal termination of Gaussian 09 at Wed Aug 26 21:55:56 2020.
