 Gaussian 09, Revision D.01,
 Gaussian 09:  ES64L-G09RevD.01 24-Apr-2013

 --------------------
 #p B2PLYPD3/Def2QZVP
 --------------------

 ------------
 cyanomethane
 ------------
 Symbolic Z-matrix:
 Charge =  0 Multiplicity = 1

                         Standard orientation:
 ---------------------------------------------------------------------
 Center     Atomic      Atomic             Coordinates (Angstroms)
 Number     Number       Type             X           Y           Z
 ---------------------------------------------------------------------
      1          6           0        1.184583   -0.005689    0.003427
      2          6           0       -0.276240    0.023120   -0.005037
      3          7           0       -1.439635   -0.010377    0.001652
      4          1           0        1.559155    0.995468   -0.279421
      5          1           0        1.537669   -0.757966   -0.724368
      6          1           0        1.530563   -0.269449    1.001881
 ---------------------------------------------------------------------

 SCF Done:  E(RB2PLYPD3) =  -132.534097481     A.U. after   12 cycles
 E2(B2PLYPD3) =    -0.1814055574D+00 E(B2PLYPD3) =    -0.13271550303800D+03

 The electronic state is 1-A.
 Alpha  occ. eigenvalues --  -14.84416 -10.67543 -10.66505  -1.03704  -0.88999
 Alpha  occ. eigenvalues --   -0.59270  -0.54007  -0.53720  -0.44763  -0.38818
 Alpha  occ. eigenvalues --   -0.38781
 Alpha virt. eigenvalues --    0.03679   0.07637   0.07766   0.10156   0.11308
 Alpha virt. eigenvalues --    0.11377   0.15288   0.16016   0.16251   0.20111
 Alpha virt. eigenvalues --    0.20147   0.25278   0.32464   0.34290   0.34518

 Mulliken charges:
               1
     1  C   -0.092624
     2  C   -0.000243
     3  N   -0.210597
     4  H    0.099912
     5  H    0.101231
     6  H    0.102320
 Sum of Mulliken charges =   0.00000

 Dipole moment (field-independent basis, Debye):
    X=              4.1326    Y=              0.0090    Z=              0.0014  Tot=              4.1327
 Quadrupole moment (field-independent basis, Debye-Ang):
   XX=            -21.1503   YY=            -17.7540   ZZ=            -17.7721
   XY=             -0.0464   XZ=              0.0052   YZ=             -0.0048

 Normal termination of Gaussian 09 at Wed Aug 26 14:40:18 2020.
