 Gaussian 09, Revision D.01,
 Gaussian 09:  ES64L-G09RevD.01 24-Apr-2013

 --------------------
 #p B2PLYPD3/Def2QZVP
 --------------------

 ------------
 cyanomethane
 ------------
 Symbolic Z-matrix:
 Charge =  0 Multiplicity = 1

                         Standard orientation:
 ---------------------------------------------------------------------
 Center     Atomic      Atomic             Coordinates (Angstroms)
 Number     Number       Type             X           Y           Z
 ---------------------------------------------------------------------
      1          6           0       -1.172512    0.012923   -0.004521
      2          6           0        0.277592   -0.005122   -0.007205
      3          7           0        1.430804   -0.000495    0.006101
      4          1           0       -1.522212    1.019430   -0.105505
      5          1           0       -1.580831   -0.430891    0.954500
      6          1           0       -1.543063   -0.631876   -0.821348
 ---------------------------------------------------------------------

 SCF Done:  E(RB2PLYPD3) =  -132.533922727     A.U. after   11 cycles
 E2(B2PLYPD3) =    -0.1805366403D+00 E(B2PLYPD3) =    -0.13271445936757D+03

 The electronic state is 1-A.
 Alpha  occ. eigenvalues --  -14.84137 -10.67441 -10.66175  -1.04174  -0.89090
 Alpha  occ. eigenvalues --   -0.59592  -0.54622  -0.52797  -0.44780  -0.39137
 Alpha  occ. eigenvalues --   -0.38883
 Alpha virt. eigenvalues --    0.03681   0.07465   0.08041   0.10162   0.11396
 Alpha virt. eigenvalues --    0.11697   0.15413   0.16164   0.16467   0.20046
 Alpha virt. eigenvalues --    0.20130   0.25468   0.32628   0.33863   0.34959

 Mulliken charges:
               1
     1  C   -0.089389
     2  C   -0.001063
     3  N   -0.205366
     4  H    0.103367
     5  H    0.094376
     6  H    0.098074
 Sum of Mulliken charges =   0.00000

 Dipole moment (field-independent basis, Debye):
    X=             -4.1148    Y=             -0.0042    Z=             -0.0105  Tot=              4.1148
 Quadrupole moment (field-independent basis, Debye-Ang):
   XX=            -21.0686   YY=            -17.6660   ZZ=            -17.8280
   XY=              0.0511   XZ=             -0.0655   YZ=              0.0141

 Normal termination of Gaussian 09 at Thu Aug 27 00:01:17 2020.
