 Gaussian 09, Revision D.01,
 Gaussian 09:  ES64L-G09RevD.01 24-Apr-2013

 --------------------
 #p B2PLYPD3/Def2QZVP
 --------------------

 ------------
 cyanomethane
 ------------
 Symbolic Z-matrix:
 Charge =  0 Multiplicity = 1

                         Standard orientation:
 ---------------------------------------------------------------------
 Center     Atomic      Atomic             Coordinates (Angstroms)
 Number     Number       Type             X           Y           Z
 ---------------------------------------------------------------------
      1          6           0       -1.174996   -0.003316   -0.004947
      2          6           0        0.280427    0.024276   -0.006334
      3          7           0        1.421324   -0.004721    0.003386
      4          1           0       -1.496493   -0.284056    0.957149
      5          1           0       -1.459021   -0.783766   -0.661366
      6          1           0       -1.626338    0.975117   -0.251802
 ---------------------------------------------------------------------

 SCF Done:  E(RB2PLYPD3) =  -132.533989812     A.U. after   12 cycles
 E2(B2PLYPD3) =    -0.1791335562D+00 E(B2PLYPD3) =    -0.13271312336771D+03

 The electronic state is 1-A.
 Alpha  occ. eigenvalues --  -14.83706 -10.66522 -10.65740  -1.04604  -0.89731
 Alpha  occ. eigenvalues --   -0.59523  -0.54889  -0.53995  -0.44651  -0.39438
 Alpha  occ. eigenvalues --   -0.39275
 Alpha virt. eigenvalues --    0.03864   0.08122   0.08689   0.10234   0.11484
 Alpha virt. eigenvalues --    0.11723   0.15434   0.15918   0.16771   0.19990
 Alpha virt. eigenvalues --    0.20119   0.25397   0.32837   0.34705   0.35240

 Mulliken charges:
               1
     1  C   -0.085243
     2  C   -0.005071
     3  N   -0.200760
     4  H    0.094807
     5  H    0.099183
     6  H    0.097085
 Sum of Mulliken charges =   0.00000

 Dipole moment (field-independent basis, Debye):
    X=             -4.1067    Y=             -0.0261    Z=              0.0263  Tot=              4.1069
 Quadrupole moment (field-independent basis, Debye-Ang):
   XX=            -21.0303   YY=            -17.5040   ZZ=            -17.8055
   XY=             -0.0280   XZ=             -0.0897   YZ=              0.0221

 Normal termination of Gaussian 09 at Wed Aug 26 13:00:33 2020.
