 Gaussian 09, Revision D.01,
 Gaussian 09:  ES64L-G09RevD.01 24-Apr-2013

 --------------------
 #p B2PLYPD3/Def2QZVP
 --------------------

 ------------
 cyanomethane
 ------------
 Symbolic Z-matrix:
 Charge =  0 Multiplicity = 1

                         Standard orientation:
 ---------------------------------------------------------------------
 Center     Atomic      Atomic             Coordinates (Angstroms)
 Number     Number       Type             X           Y           Z
 ---------------------------------------------------------------------
      1          6           0       -1.173592   -0.001691    0.009452
      2          6           0        0.269361   -0.019061   -0.001298
      3          7           0        1.426614    0.013079   -0.003944
      4          1           0       -1.461919   -0.263096    0.966908
      5          1           0       -1.528215   -0.735329   -0.721077
      6          1           0       -1.570772    1.031385   -0.267147
 ---------------------------------------------------------------------

 SCF Done:  E(RB2PLYPD3) =  -132.531033257     A.U. after   12 cycles
 E2(B2PLYPD3) =    -0.1807455196D+00 E(B2PLYPD3) =    -0.13271177877707D+03

 The electronic state is 1-A.
 Alpha  occ. eigenvalues --  -14.84145 -10.66991 -10.66152  -1.03968  -0.89705
 Alpha  occ. eigenvalues --   -0.59364  -0.55265  -0.53414  -0.44701  -0.38930
 Alpha  occ. eigenvalues --   -0.38762
 Alpha virt. eigenvalues --    0.03683   0.07424   0.08439   0.10151   0.11372
 Alpha virt. eigenvalues --    0.11570   0.15449   0.15704   0.16440   0.20128
 Alpha virt. eigenvalues --    0.20144   0.25575   0.32610   0.33975   0.35009

 Mulliken charges:
               1
     1  C   -0.093259
     2  C   -0.001666
     3  N   -0.209239
     4  H    0.105485
     5  H    0.100087
     6  H    0.098594
 Sum of Mulliken charges =   0.00000

 Dipole moment (field-independent basis, Debye):
    X=             -4.1106    Y=             -0.0348    Z=              0.0181  Tot=              4.1108
 Quadrupole moment (field-independent basis, Debye-Ang):
   XX=            -21.1939   YY=            -17.6606   ZZ=            -17.7150
   XY=             -0.0849   XZ=              0.0574   YZ=             -0.0103

 Normal termination of Gaussian 09 at Wed Aug 26 13:15:15 2020.
