 Gaussian 09, Revision D.01,
 Gaussian 09:  ES64L-G09RevD.01 24-Apr-2013

 --------------------
 #p B2PLYPD3/Def2QZVP
 --------------------

 ------------
 cyanomethane
 ------------
 Symbolic Z-matrix:
 Charge =  0 Multiplicity = 1

                         Standard orientation:
 ---------------------------------------------------------------------
 Center     Atomic      Atomic             Coordinates (Angstroms)
 Number     Number       Type             X           Y           Z
 ---------------------------------------------------------------------
      1          6           0        1.188122   -0.000256    0.017341
      2          6           0       -0.268205   -0.023517   -0.065268
      3          7           0       -1.450185    0.017693    0.041278
      4          1           0        1.391343   -0.538993   -0.814050
      5          1           0        1.627101   -0.463759    0.863956
      6          1           0        1.613350    1.021535   -0.051291
 ---------------------------------------------------------------------

 SCF Done:  E(RB2PLYPD3) =  -132.518832919     A.U. after   12 cycles
 E2(B2PLYPD3) =    -0.1835067620D+00 E(B2PLYPD3) =    -0.13270233968070D+03

 The electronic state is 1-A.
 Alpha  occ. eigenvalues --  -14.85199 -10.67291 -10.66305  -1.02929  -0.90204
 Alpha  occ. eigenvalues --   -0.60570  -0.55278  -0.53498  -0.44954  -0.38403
 Alpha  occ. eigenvalues --   -0.38266
 Alpha virt. eigenvalues --    0.03550   0.06641   0.08374   0.09760   0.11070
 Alpha virt. eigenvalues --    0.11335   0.14876   0.15622   0.17606   0.20124
 Alpha virt. eigenvalues --    0.20496   0.25667   0.32549   0.34739   0.35106

 Mulliken charges:
               1
     1  C   -0.082125
     2  C    0.008658
     3  N   -0.220055
     4  H    0.102992
     5  H    0.095730
     6  H    0.094799
 Sum of Mulliken charges =   0.00000

 Dipole moment (field-independent basis, Debye):
    X=              4.1574    Y=             -0.0484    Z=             -0.0673  Tot=              4.1583
 Quadrupole moment (field-independent basis, Debye-Ang):
   XX=            -20.8895   YY=            -17.8067   ZZ=            -17.8899
   XY=              0.1245   XZ=              0.3210   YZ=              0.0313

 Normal termination of Gaussian 09 at Wed Aug 26 21:43:57 2020.
