 Gaussian 09, Revision D.01,
 Gaussian 09:  ES64L-G09RevD.01 24-Apr-2013

 --------------------
 #p B2PLYPD3/Def2QZVP
 --------------------

 ------------
 cyanomethane
 ------------
 Symbolic Z-matrix:
 Charge =  0 Multiplicity = 1

                         Standard orientation:
 ---------------------------------------------------------------------
 Center     Atomic      Atomic             Coordinates (Angstroms)
 Number     Number       Type             X           Y           Z
 ---------------------------------------------------------------------
      1          6           0        1.180676   -0.010828   -0.006300
      2          6           0       -0.282177    0.036519   -0.008954
      3          7           0       -1.411253   -0.004876   -0.000166
      4          1           0        1.473447   -0.591584   -0.875553
      5          1           0        1.352711   -0.577784    0.941801
      6          1           0        1.661616    1.049347    0.026437
 ---------------------------------------------------------------------

 SCF Done:  E(RB2PLYPD3) =  -132.528186723     A.U. after   12 cycles
 E2(B2PLYPD3) =    -0.1789288860D+00 E(B2PLYPD3) =    -0.13270711560898D+03

 The electronic state is 1-A.
 Alpha  occ. eigenvalues --  -14.83207 -10.68151 -10.65302  -1.04956  -0.88659
 Alpha  occ. eigenvalues --   -0.57861  -0.54262  -0.53170  -0.44420  -0.39545
 Alpha  occ. eigenvalues --   -0.39272
 Alpha virt. eigenvalues --    0.03568   0.07683   0.08582   0.10265   0.11749
 Alpha virt. eigenvalues --    0.12086   0.15058   0.15426   0.16583   0.19962
 Alpha virt. eigenvalues --    0.20096   0.25236   0.32048   0.33572   0.34640

 Mulliken charges:
               1
     1  C   -0.120962
     2  C   -0.007265
     3  N   -0.194356
     4  H    0.110210
     5  H    0.108937
     6  H    0.103435
 Sum of Mulliken charges =   0.00000

 Dipole moment (field-independent basis, Debye):
    X=              4.0451    Y=             -0.0202    Z=              0.0083  Tot=              4.0452
 Quadrupole moment (field-independent basis, Debye-Ang):
   XX=            -21.4935   YY=            -17.5378   ZZ=            -17.6385
   XY=              0.1401   XZ=             -0.0854   YZ=              0.0307

 Normal termination of Gaussian 09 at Wed Aug 26 18:46:14 2020.
