 Gaussian 09, Revision D.01,
 Gaussian 09:  ES64L-G09RevD.01 24-Apr-2013

 --------------------
 #p B2PLYPD3/Def2QZVP
 --------------------

 ------------
 cyanomethane
 ------------
 Symbolic Z-matrix:
 Charge =  0 Multiplicity = 1

                         Standard orientation:
 ---------------------------------------------------------------------
 Center     Atomic      Atomic             Coordinates (Angstroms)
 Number     Number       Type             X           Y           Z
 ---------------------------------------------------------------------
      1          6           0       -1.182872    0.024546   -0.000039
      2          6           0        0.301301   -0.065847    0.017065
      3          7           0        1.438073    0.033799   -0.021030
      4          1           0       -1.622764    1.019452   -0.043018
      5          1           0       -1.430717   -0.445479    0.896479
      6          1           0       -1.723601   -0.562762   -0.808407
 ---------------------------------------------------------------------

 SCF Done:  E(RB2PLYPD3) =  -132.526256047     A.U. after   12 cycles
 E2(B2PLYPD3) =    -0.1798345002D+00 E(B2PLYPD3) =    -0.13270609054765D+03

 The electronic state is 1-A.
 Alpha  occ. eigenvalues --  -14.84086 -10.67273 -10.66225  -1.04750  -0.88717
 Alpha  occ. eigenvalues --   -0.59997  -0.54231  -0.52002  -0.44924  -0.39647
 Alpha  occ. eigenvalues --   -0.39461
 Alpha virt. eigenvalues --    0.03531   0.07222   0.08818   0.10084   0.11399
 Alpha virt. eigenvalues --    0.11670   0.15206   0.15762   0.18023   0.19903
 Alpha virt. eigenvalues --    0.20330   0.25330   0.32286   0.34697   0.34880

 Mulliken charges:
               1
     1  C   -0.081802
     2  C    0.003266
     3  N   -0.197535
     4  H    0.095582
     5  H    0.095692
     6  H    0.084796
 Sum of Mulliken charges =   0.00000

 Dipole moment (field-independent basis, Debye):
    X=             -4.1090    Y=             -0.0658    Z=              0.0719  Tot=              4.1102
 Quadrupole moment (field-independent basis, Debye-Ang):
   XX=            -20.6676   YY=            -17.7673   ZZ=            -17.9203
   XY=             -0.1874   XZ=              0.2371   YZ=             -0.0689

 Normal termination of Gaussian 09 at Wed Aug 26 21:27:59 2020.
