 Gaussian 09, Revision D.01,
 Gaussian 09:  ES64L-G09RevD.01 24-Apr-2013

 --------------------
 #p B2PLYPD3/Def2QZVP
 --------------------

 ------------
 cyanomethane
 ------------
 Symbolic Z-matrix:
 Charge =  0 Multiplicity = 1

                         Standard orientation:
 ---------------------------------------------------------------------
 Center     Atomic      Atomic             Coordinates (Angstroms)
 Number     Number       Type             X           Y           Z
 ---------------------------------------------------------------------
      1          6           0        1.166479   -0.007812    0.005730
      2          6           0       -0.279762   -0.013787   -0.001022
      3          7           0       -1.428918    0.013211   -0.001898
      4          1           0        1.632721    0.982542   -0.373644
      5          1           0        1.523248   -0.801224   -0.638039
      6          1           0        1.526157   -0.144204    0.996719
 ---------------------------------------------------------------------

 SCF Done:  E(RB2PLYPD3) =  -132.532197612     A.U. after   12 cycles
 E2(B2PLYPD3) =    -0.1802433164D+00 E(B2PLYPD3) =    -0.13271244092830D+03

 The electronic state is 1-A.
 Alpha  occ. eigenvalues --  -14.84091 -10.67299 -10.66108  -1.04382  -0.89186
 Alpha  occ. eigenvalues --   -0.59964  -0.54652  -0.52490  -0.44836  -0.39242
 Alpha  occ. eigenvalues --   -0.39002
 Alpha virt. eigenvalues --    0.03625   0.07263   0.08268   0.10162   0.11467
 Alpha virt. eigenvalues --    0.11764   0.15502   0.16156   0.16812   0.20025
 Alpha virt. eigenvalues --    0.20125   0.25563   0.32522   0.34037   0.35009

 Mulliken charges:
               1
     1  C   -0.084142
     2  C   -0.000689
     3  N   -0.202963
     4  H    0.090485
     5  H    0.098378
     6  H    0.098931
 Sum of Mulliken charges =   0.00000

 Dipole moment (field-independent basis, Debye):
    X=              4.1104    Y=             -0.0367    Z=              0.0179  Tot=              4.1106
 Quadrupole moment (field-independent basis, Debye-Ang):
   XX=            -20.9461   YY=            -17.7700   ZZ=            -17.7597
   XY=              0.1288   XZ=             -0.0086   YZ=              0.0480

 Normal termination of Gaussian 09 at Thu Aug 27 00:14:37 2020.
