 Gaussian 09, Revision D.01,
 Gaussian 09:  ES64L-G09RevD.01 24-Apr-2013

 --------------------
 #p B2PLYPD3/Def2QZVP
 --------------------

 ------------
 cyanomethane
 ------------
 Symbolic Z-matrix:
 Charge =  0 Multiplicity = 1

                         Standard orientation:
 ---------------------------------------------------------------------
 Center     Atomic      Atomic             Coordinates (Angstroms)
 Number     Number       Type             X           Y           Z
 ---------------------------------------------------------------------
      1          6           0        1.175702   -0.006045    0.006503
      2          6           0       -0.273225    0.011493    0.002265
      3          7           0       -1.433370   -0.001291   -0.001500
      4          1           0        1.534300   -0.201724    0.996050
      5          1           0        1.589323    0.974249   -0.353341
      6          1           0        1.495105   -0.796175   -0.684819
 ---------------------------------------------------------------------

 SCF Done:  E(RB2PLYPD3) =  -132.533967961     A.U. after   12 cycles
 E2(B2PLYPD3) =    -0.1810413494D+00 E(B2PLYPD3) =    -0.13271500931021D+03

 The electronic state is 1-A.
 Alpha  occ. eigenvalues --  -14.84292 -10.67304 -10.66342  -1.03881  -0.89287
 Alpha  occ. eigenvalues --   -0.59565  -0.54488  -0.53407  -0.44767  -0.38904
 Alpha  occ. eigenvalues --   -0.38767
 Alpha virt. eigenvalues --    0.03714   0.07506   0.07959   0.10159   0.11375
 Alpha virt. eigenvalues --    0.11527   0.15387   0.16035   0.16353   0.20115
 Alpha virt. eigenvalues --    0.20140   0.25473   0.32581   0.34152   0.34771

 Mulliken charges:
               1
     1  C   -0.090122
     2  C   -0.000430
     3  N   -0.209338
     4  H    0.102201
     5  H    0.096739
     6  H    0.100951
 Sum of Mulliken charges =   0.00000

 Dipole moment (field-independent basis, Debye):
    X=              4.1259    Y=             -0.0082    Z=              0.0034  Tot=              4.1259
 Quadrupole moment (field-independent basis, Debye-Ang):
   XX=            -21.1139   YY=            -17.7607   ZZ=            -17.7294
   XY=              0.0445   XZ=              0.0007   YZ=              0.0077

 Normal termination of Gaussian 09 at Wed Aug 26 23:51:55 2020.
