 Gaussian 09, Revision D.01,
 Gaussian 09:  ES64L-G09RevD.01 24-Apr-2013

 --------------------
 #p B2PLYPD3/Def2QZVP
 --------------------

 ------------
 cyanomethane
 ------------
 Symbolic Z-matrix:
 Charge =  0 Multiplicity = 1

                         Standard orientation:
 ---------------------------------------------------------------------
 Center     Atomic      Atomic             Coordinates (Angstroms)
 Number     Number       Type             X           Y           Z
 ---------------------------------------------------------------------
      1          6           0        1.212796    0.032641    0.000877
      2          6           0       -0.291429   -0.059231    0.007661
      3          7           0       -1.435071    0.029095   -0.002422
      4          1           0        1.528030   -0.108938    0.959647
      5          1           0        1.506418    0.913746   -0.417655
      6          1           0        1.482841   -0.848937   -0.576270
 ---------------------------------------------------------------------

 SCF Done:  E(RB2PLYPD3) =  -132.526016357     A.U. after   12 cycles
 E2(B2PLYPD3) =    -0.1794693987D+00 E(B2PLYPD3) =    -0.13270548575558D+03

 The electronic state is 1-A.
 Alpha  occ. eigenvalues --  -14.83857 -10.66199 -10.65960  -1.04229  -0.89747
 Alpha  occ. eigenvalues --   -0.58663  -0.56407  -0.54014  -0.44511  -0.39571
 Alpha  occ. eigenvalues --   -0.39224
 Alpha virt. eigenvalues --    0.03857   0.08690   0.09176   0.10134   0.11061
 Alpha virt. eigenvalues --    0.11324   0.15080   0.15286   0.16789   0.19982
 Alpha virt. eigenvalues --    0.20123   0.24715   0.32590   0.34316   0.36050

 Mulliken charges:
               1
     1  C   -0.088007
     2  C   -0.008153
     3  N   -0.204058
     4  H    0.099139
     5  H    0.105913
     6  H    0.095166
 Sum of Mulliken charges =   0.00000

 Dipole moment (field-independent basis, Debye):
    X=              4.1205    Y=             -0.0589    Z=              0.0175  Tot=              4.1209
 Quadrupole moment (field-independent basis, Debye-Ang):
   XX=            -21.1531   YY=            -17.5201   ZZ=            -17.7280
   XY=              0.1362   XZ=              0.0564   YZ=             -0.0690

 Normal termination of Gaussian 09 at Wed Aug 26 18:57:14 2020.
