 Gaussian 09, Revision D.01,
 Gaussian 09:  ES64L-G09RevD.01 24-Apr-2013

 --------------------
 #p B2PLYPD3/Def2QZVP
 --------------------

 ------------
 cyanomethane
 ------------
 Symbolic Z-matrix:
 Charge =  0 Multiplicity = 1

                         Standard orientation:
 ---------------------------------------------------------------------
 Center     Atomic      Atomic             Coordinates (Angstroms)
 Number     Number       Type             X           Y           Z
 ---------------------------------------------------------------------
      1          6           0       -1.180769    0.038758    0.002058
      2          6           0        0.290972    0.027942   -0.007254
      3          7           0        1.450055   -0.024063    0.006030
      4          1           0       -1.544732    1.036715   -0.012781
      5          1           0       -1.660980   -0.625510    0.923993
      6          1           0       -1.605893   -0.642966   -0.922243
 ---------------------------------------------------------------------

 SCF Done:  E(RB2PLYPD3) =  -132.511093260     A.U. after   12 cycles
 E2(B2PLYPD3) =    -0.1825442816D+00 E(B2PLYPD3) =    -0.13269363754189D+03

 The electronic state is 1-A.
 Alpha  occ. eigenvalues --  -14.84597 -10.69696 -10.66759  -1.03988  -0.87413
 Alpha  occ. eigenvalues --   -0.59142  -0.54314  -0.49399  -0.44970  -0.39259
 Alpha  occ. eigenvalues --   -0.38315
 Alpha virt. eigenvalues --    0.02912   0.05557   0.07754   0.10134   0.10944
 Alpha virt. eigenvalues --    0.12105   0.15060   0.16141   0.16974   0.19861
 Alpha virt. eigenvalues --    0.20250   0.25032   0.31034   0.31306   0.34525

 Mulliken charges:
               1
     1  C   -0.105189
     2  C    0.006707
     3  N   -0.204130
     4  H    0.116728
     5  H    0.092976
     6  H    0.092907
 Sum of Mulliken charges =   0.00000

 Dipole moment (field-independent basis, Debye):
    X=             -4.1057    Y=              0.0126    Z=             -0.0150  Tot=              4.1057
 Quadrupole moment (field-independent basis, Debye-Ang):
   XX=            -21.0982   YY=            -17.6106   ZZ=            -18.2565
   XY=              0.2953   XZ=             -0.0600   YZ=              0.0034

 Normal termination of Gaussian 09 at Wed Aug 26 19:05:29 2020.
