 Gaussian 09, Revision D.01,
 Gaussian 09:  ES64L-G09RevD.01 24-Apr-2013

 --------------------
 #p B2PLYPD3/Def2QZVP
 --------------------

 ------------
 cyanomethane
 ------------
 Symbolic Z-matrix:
 Charge =  0 Multiplicity = 1

                         Standard orientation:
 ---------------------------------------------------------------------
 Center     Atomic      Atomic             Coordinates (Angstroms)
 Number     Number       Type             X           Y           Z
 ---------------------------------------------------------------------
      1          6           0       -1.191398    0.012075   -0.007094
      2          6           0        0.250660    0.021317    0.050660
      3          7           0        1.436587   -0.018362   -0.018209
      4          1           0       -1.373826    1.009929   -0.182541
      5          1           0       -1.589552   -0.422512    0.879065
      6          1           0       -1.448302   -0.659233   -0.830455
 ---------------------------------------------------------------------

 SCF Done:  E(RB2PLYPD3) =  -132.522268269     A.U. after   12 cycles
 E2(B2PLYPD3) =    -0.1833428598D+00 E(B2PLYPD3) =    -0.13270561112873D+03

 The electronic state is 1-A.
 Alpha  occ. eigenvalues --  -14.84814 -10.66915 -10.66394  -1.02738  -0.90595
 Alpha  occ. eigenvalues --   -0.59279  -0.56797  -0.54099  -0.44600  -0.38168
 Alpha  occ. eigenvalues --   -0.37919
 Alpha virt. eigenvalues --    0.03721   0.07340   0.08355   0.10079   0.10778
 Alpha virt. eigenvalues --    0.11290   0.14993   0.15454   0.15882   0.20253
 Alpha virt. eigenvalues --    0.20325   0.25585   0.32556   0.33909   0.35512

 Mulliken charges:
               1
     1  C   -0.095138
     2  C    0.000743
     3  N   -0.226035
     4  H    0.114209
     5  H    0.102239
     6  H    0.103982
 Sum of Mulliken charges =   0.00000

 Dipole moment (field-independent basis, Debye):
    X=             -4.1460    Y=             -0.0057    Z=              0.0115  Tot=              4.1460
 Quadrupole moment (field-independent basis, Debye-Ang):
   XX=            -21.4285   YY=            -17.5333   ZZ=            -17.8512
   XY=              0.2768   XZ=             -0.0294   YZ=             -0.0495

 Normal termination of Gaussian 09 at Wed Aug 26 22:16:36 2020.
