 Gaussian 09, Revision D.01,
 Gaussian 09:  ES64L-G09RevD.01 24-Apr-2013

 --------------------
 #p B2PLYPD3/Def2QZVP
 --------------------

 ------------
 cyanomethane
 ------------
 Symbolic Z-matrix:
 Charge =  0 Multiplicity = 1

                         Standard orientation:
 ---------------------------------------------------------------------
 Center     Atomic      Atomic             Coordinates (Angstroms)
 Number     Number       Type             X           Y           Z
 ---------------------------------------------------------------------
      1          6           0       -1.169615    0.009510   -0.001283
      2          6           0        0.283391   -0.012135   -0.014906
      3          7           0        1.426707    0.005548    0.006102
      4          1           0       -1.559811    1.039586   -0.011900
      5          1           0       -1.532439   -0.505283    0.922908
      6          1           0       -1.577358   -0.557391   -0.856583
 ---------------------------------------------------------------------

 SCF Done:  E(RB2PLYPD3) =  -132.535101770     A.U. after   11 cycles
 E2(B2PLYPD3) =    -0.1797902307D+00 E(B2PLYPD3) =    -0.13271489200113D+03

 The electronic state is 1-A.
 Alpha  occ. eigenvalues --  -14.83894 -10.67588 -10.65931  -1.04572  -0.88820
 Alpha  occ. eigenvalues --   -0.59573  -0.53828  -0.53054  -0.44771  -0.39345
 Alpha  occ. eigenvalues --   -0.39175
 Alpha virt. eigenvalues --    0.03674   0.07784   0.07892   0.10178   0.11581
 Alpha virt. eigenvalues --    0.11767   0.15433   0.16171   0.16717   0.20012
 Alpha virt. eigenvalues --    0.20065   0.25458   0.32768   0.34021   0.34703

 Mulliken charges:
               1
     1  C   -0.090172
     2  C   -0.002104
     3  N   -0.199852
     4  H    0.100064
     5  H    0.095701
     6  H    0.096363
 Sum of Mulliken charges =   0.00000

 Dipole moment (field-independent basis, Debye):
    X=             -4.1002    Y=             -0.0190    Z=             -0.0039  Tot=              4.1002
 Quadrupole moment (field-independent basis, Debye-Ang):
   XX=            -21.0237   YY=            -17.6729   ZZ=            -17.8045
   XY=             -0.0067   XZ=             -0.0170   YZ=              0.0102

 Normal termination of Gaussian 09 at Thu Aug 27 00:06:43 2020.
