 Gaussian 09, Revision D.01,
 Gaussian 09:  ES64L-G09RevD.01 24-Apr-2013

 --------------------
 #p B2PLYPD3/Def2QZVP
 --------------------

 ------------
 cyanomethane
 ------------
 Symbolic Z-matrix:
 Charge =  0 Multiplicity = 1

                         Standard orientation:
 ---------------------------------------------------------------------
 Center     Atomic      Atomic             Coordinates (Angstroms)
 Number     Number       Type             X           Y           Z
 ---------------------------------------------------------------------
      1          6           0       -1.180731    0.000341    0.010828
      2          6           0        0.269147   -0.022364   -0.015652
      3          7           0        1.430141    0.007578    0.004968
      4          1           0       -1.485973    0.002947    0.996847
      5          1           0       -1.573981   -0.863930   -0.519553
      6          1           0       -1.481533    0.940080   -0.483130
 ---------------------------------------------------------------------

 SCF Done:  E(RB2PLYPD3) =  -132.532456224     A.U. after   12 cycles
 E2(B2PLYPD3) =    -0.1808669945D+00 E(B2PLYPD3) =    -0.13271332321842D+03

 The electronic state is 1-A.
 Alpha  occ. eigenvalues --  -14.84233 -10.66652 -10.66275  -1.03785  -0.89878
 Alpha  occ. eigenvalues --   -0.59472  -0.55164  -0.54188  -0.44679  -0.38886
 Alpha  occ. eigenvalues --   -0.38729
 Alpha virt. eigenvalues --    0.03813   0.07885   0.08256   0.10162   0.11282
 Alpha virt. eigenvalues --    0.11440   0.15387   0.15906   0.16139   0.20118
 Alpha virt. eigenvalues --    0.20179   0.25460   0.32697   0.34230   0.35197

 Mulliken charges:
               1
     1  C   -0.089213
     2  C   -0.001976
     3  N   -0.211640
     4  H    0.103275
     5  H    0.099436
     6  H    0.100117
 Sum of Mulliken charges =   0.00000

 Dipole moment (field-independent basis, Debye):
    X=             -4.1255    Y=             -0.0034    Z=              0.0088  Tot=              4.1255
 Quadrupole moment (field-independent basis, Debye-Ang):
   XX=            -21.1826   YY=            -17.6404   ZZ=            -17.7275
   XY=              0.0175   XZ=             -0.0263   YZ=              0.0081

 Normal termination of Gaussian 09 at Wed Aug 26 12:52:56 2020.
