 Gaussian 09, Revision D.01,
 Gaussian 09:  ES64L-G09RevD.01 24-Apr-2013

 --------------------
 #p B2PLYPD3/Def2QZVP
 --------------------

 ------------
 cyanomethane
 ------------
 Symbolic Z-matrix:
 Charge =  0 Multiplicity = 1

                         Standard orientation:
 ---------------------------------------------------------------------
 Center     Atomic      Atomic             Coordinates (Angstroms)
 Number     Number       Type             X           Y           Z
 ---------------------------------------------------------------------
      1          6           0       -1.162300   -0.042907    0.014731
      2          6           0        0.270869   -0.017709   -0.014027
      3          7           0        1.419243    0.016410   -0.002174
      4          1           0       -1.592607    1.028079   -0.248158
      5          1           0       -1.411261   -0.170288    0.947148
      6          1           0       -1.582245   -0.608965   -0.687997
 ---------------------------------------------------------------------

 SCF Done:  E(RB2PLYPD3) =  -132.512068887     A.U. after   12 cycles
 E2(B2PLYPD3) =    -0.1797898612D+00 E(B2PLYPD3) =    -0.13269185874806D+03

 The electronic state is 1-A.
 Alpha  occ. eigenvalues --  -14.83973 -10.65945 -10.65616  -1.04430  -0.90918
 Alpha  occ. eigenvalues --   -0.60923  -0.58405  -0.51611  -0.44782  -0.39550
 Alpha  occ. eigenvalues --   -0.38615
 Alpha virt. eigenvalues --    0.03585   0.07544   0.09146   0.10215   0.11037
 Alpha virt. eigenvalues --    0.12110   0.15577   0.16145   0.17007   0.19961
 Alpha virt. eigenvalues --    0.20229   0.25740   0.31638   0.34058   0.36958

 Mulliken charges:
               1
     1  C   -0.075314
     2  C    0.001864
     3  N   -0.205682
     4  H    0.074457
     5  H    0.105540
     6  H    0.099135
 Sum of Mulliken charges =   0.00000

 Dipole moment (field-independent basis, Debye):
    X=             -4.1141    Y=             -0.0177    Z=              0.0065  Tot=              4.1142
 Quadrupole moment (field-independent basis, Debye-Ang):
   XX=            -20.8585   YY=            -17.8779   ZZ=            -17.5030
   XY=             -0.1733   XZ=              0.1515   YZ=              0.0891

 Normal termination of Gaussian 09 at Wed Aug 26 22:27:03 2020.
