 Gaussian 09, Revision D.01,
 Gaussian 09:  ES64L-G09RevD.01 24-Apr-2013

 --------------------
 #p B2PLYPD3/Def2QZVP
 --------------------

 ------------
 cyanomethane
 ------------
 Symbolic Z-matrix:
 Charge =  0 Multiplicity = 1

                         Standard orientation:
 ---------------------------------------------------------------------
 Center     Atomic      Atomic             Coordinates (Angstroms)
 Number     Number       Type             X           Y           Z
 ---------------------------------------------------------------------
      1          6           0       -1.194059   -0.006223   -0.004516
      2          6           0        0.287321    0.034428    0.002345
      3          7           0        1.439351   -0.018360   -0.000399
      4          1           0       -1.550791   -0.046220    0.983599
      5          1           0       -1.552338   -0.872062   -0.510993
      6          1           0       -1.531900    0.877575   -0.456783
 ---------------------------------------------------------------------

 SCF Done:  E(RB2PLYPD3) =  -132.533351127     A.U. after   12 cycles
 E2(B2PLYPD3) =    -0.1799608344D+00 E(B2PLYPD3) =    -0.13271331196149D+03

 The electronic state is 1-A.
 Alpha  occ. eigenvalues --  -14.84164 -10.66322 -10.66257  -1.04110  -0.89631
 Alpha  occ. eigenvalues --   -0.59587  -0.55040  -0.54206  -0.44734  -0.39299
 Alpha  occ. eigenvalues --   -0.39228
 Alpha virt. eigenvalues --    0.03863   0.08243   0.08693   0.10212   0.11166
 Alpha virt. eigenvalues --    0.11372   0.15304   0.16018   0.16679   0.20026
 Alpha virt. eigenvalues --    0.20122   0.24958   0.32744   0.35068   0.35335

 Mulliken charges:
               1
     1  C   -0.074488
     2  C   -0.003680
     3  N   -0.205906
     4  H    0.092528
     5  H    0.095582
     6  H    0.095963
 Sum of Mulliken charges =   0.00000

 Dipole moment (field-independent basis, Debye):
    X=             -4.1446    Y=              0.0256    Z=              0.0164  Tot=              4.1447
 Quadrupole moment (field-independent basis, Debye-Ang):
   XX=            -20.9105   YY=            -17.6430   ZZ=            -17.7995
   XY=              0.1180   XZ=             -0.0441   YZ=             -0.0128

 Normal termination of Gaussian 09 at Wed Aug 26 11:35:12 2020.
