 Gaussian 09, Revision D.01,
 Gaussian 09:  ES64L-G09RevD.01 24-Apr-2013

 --------------------
 #p B2PLYPD3/Def2QZVP
 --------------------

 ------------
 cyanomethane
 ------------
 Symbolic Z-matrix:
 Charge =  0 Multiplicity = 1

                         Standard orientation:
 ---------------------------------------------------------------------
 Center     Atomic      Atomic             Coordinates (Angstroms)
 Number     Number       Type             X           Y           Z
 ---------------------------------------------------------------------
      1          6           0        1.178676   -0.008495   -0.003292
      2          6           0       -0.286419   -0.031836    0.002134
      3          7           0       -1.438161    0.021225   -0.003495
      4          1           0        1.629680    0.977325   -0.267797
      5          1           0        1.563194   -0.694664   -0.631384
      6          1           0        1.520706   -0.189251    0.930598
 ---------------------------------------------------------------------

 SCF Done:  E(RB2PLYPD3) =  -132.525562490     A.U. after   12 cycles
 E2(B2PLYPD3) =    -0.1799308858D+00 E(B2PLYPD3) =    -0.13270549337592D+03

 The electronic state is 1-A.
 Alpha  occ. eigenvalues --  -14.84291 -10.66365 -10.65713  -1.04261  -0.90201
 Alpha  occ. eigenvalues --   -0.60854  -0.55834  -0.53111  -0.44912  -0.39453
 Alpha  occ. eigenvalues --   -0.39169
 Alpha virt. eigenvalues --    0.03773   0.07844   0.08922   0.10205   0.11162
 Alpha virt. eigenvalues --    0.11561   0.15545   0.16231   0.17200   0.20016
 Alpha virt. eigenvalues --    0.20171   0.25259   0.32817   0.34588   0.36038

 Mulliken charges:
               1
     1  C   -0.058492
     2  C    0.001855
     3  N   -0.205331
     4  H    0.082741
     5  H    0.090574
     6  H    0.088653
 Sum of Mulliken charges =   0.00000

 Dipole moment (field-independent basis, Debye):
    X=              4.1509    Y=             -0.0489    Z=              0.0348  Tot=              4.1513
 Quadrupole moment (field-independent basis, Debye-Ang):
   XX=            -20.6089   YY=            -17.7482   ZZ=            -17.8049
   XY=              0.1431   XZ=              0.0028   YZ=              0.0622

 Normal termination of Gaussian 09 at Wed Aug 26 11:33:20 2020.
