 Gaussian 09, Revision D.01,
 Gaussian 09:  ES64L-G09RevD.01 24-Apr-2013

 --------------------
 #p B2PLYPD3/Def2QZVP
 --------------------

 ------------
 cyanomethane
 ------------
 Symbolic Z-matrix:
 Charge =  0 Multiplicity = 1

                         Standard orientation:
 ---------------------------------------------------------------------
 Center     Atomic      Atomic             Coordinates (Angstroms)
 Number     Number       Type             X           Y           Z
 ---------------------------------------------------------------------
      1          6           0       -1.166492    0.016093    0.005361
      2          6           0        0.291778   -0.021830   -0.038172
      3          7           0        1.421625    0.008254    0.018433
      4          1           0       -1.548641    1.059428   -0.035241
      5          1           0       -1.560907   -0.492526    0.937174
      6          1           0       -1.593543   -0.590257   -0.834103
 ---------------------------------------------------------------------

 SCF Done:  E(RB2PLYPD3) =  -132.532825120     A.U. after   11 cycles
 E2(B2PLYPD3) =    -0.1790468373D+00 E(B2PLYPD3) =    -0.13271187195713D+03

 The electronic state is 1-A.
 Alpha  occ. eigenvalues --  -14.83609 -10.67985 -10.65636  -1.05084  -0.88322
 Alpha  occ. eigenvalues --   -0.59364  -0.53690  -0.52289  -0.44769  -0.39696
 Alpha  occ. eigenvalues --   -0.39422
 Alpha virt. eigenvalues --    0.03571   0.07692   0.07985   0.10175   0.11698
 Alpha virt. eigenvalues --    0.11954   0.15415   0.16170   0.17035   0.19905
 Alpha virt. eigenvalues --    0.20018   0.25495   0.32740   0.33776   0.34617

 Mulliken charges:
               1
     1  C   -0.093903
     2  C   -0.003151
     3  N   -0.192037
     4  H    0.101597
     5  H    0.094461
     6  H    0.093033
 Sum of Mulliken charges =   0.00000

 Dipole moment (field-independent basis, Debye):
    X=             -4.0711    Y=             -0.0318    Z=             -0.0255  Tot=              4.0713
 Quadrupole moment (field-independent basis, Debye-Ang):
   XX=            -20.9974   YY=            -17.5986   ZZ=            -17.8731
   XY=              0.0270   XZ=             -0.1042   YZ=             -0.0041

 Normal termination of Gaussian 09 at Wed Aug 26 16:16:09 2020.
