 Gaussian 09, Revision D.01,
 Gaussian 09:  ES64L-G09RevD.01 24-Apr-2013

 --------------------
 #p B2PLYPD3/Def2QZVP
 --------------------

 ------------
 cyanomethane
 ------------
 Symbolic Z-matrix:
 Charge =  0 Multiplicity = 1

                         Standard orientation:
 ---------------------------------------------------------------------
 Center     Atomic      Atomic             Coordinates (Angstroms)
 Number     Number       Type             X           Y           Z
 ---------------------------------------------------------------------
      1          6           0       -1.176505    0.013316    0.012797
      2          6           0        0.271247    0.011475    0.019335
      3          7           0        1.430302   -0.002647   -0.012078
      4          1           0       -1.508846   -0.207803    0.977493
      5          1           0       -1.486328   -0.895638   -0.672717
      6          1           0       -1.585395    0.973219   -0.413024
 ---------------------------------------------------------------------

 SCF Done:  E(RB2PLYPD3) =  -132.527125323     A.U. after   12 cycles
 E2(B2PLYPD3) =    -0.1813208624D+00 E(B2PLYPD3) =    -0.13270844618511D+03

 The electronic state is 1-A.
 Alpha  occ. eigenvalues --  -14.84213 -10.67883 -10.66276  -1.03878  -0.89070
 Alpha  occ. eigenvalues --   -0.59207  -0.54960  -0.52348  -0.44708  -0.38974
 Alpha  occ. eigenvalues --   -0.38488
 Alpha virt. eigenvalues --    0.03458   0.07052   0.08144   0.10139   0.11232
 Alpha virt. eigenvalues --    0.11793   0.15282   0.15589   0.16529   0.20068
 Alpha virt. eigenvalues --    0.20195   0.25450   0.31984   0.33026   0.35013

 Mulliken charges:
               1
     1  C   -0.104359
     2  C    0.001611
     3  N   -0.209473
     4  H    0.107960
     5  H    0.097314
     6  H    0.106947
 Sum of Mulliken charges =   0.00000

 Dipole moment (field-independent basis, Debye):
    X=             -4.1056    Y=             -0.0132    Z=              0.0349  Tot=              4.1058
 Quadrupole moment (field-independent basis, Debye-Ang):
   XX=            -21.3016   YY=            -17.6405   ZZ=            -17.8084
   XY=             -0.0208   XZ=              0.0368   YZ=             -0.0975

 Normal termination of Gaussian 09 at Wed Aug 26 15:24:25 2020.
