 Gaussian 09, Revision D.01,
 Gaussian 09:  ES64L-G09RevD.01 24-Apr-2013

 --------------------
 #p B2PLYPD3/Def2QZVP
 --------------------

 ------------
 cyanomethane
 ------------
 Symbolic Z-matrix:
 Charge =  0 Multiplicity = 1

                         Standard orientation:
 ---------------------------------------------------------------------
 Center     Atomic      Atomic             Coordinates (Angstroms)
 Number     Number       Type             X           Y           Z
 ---------------------------------------------------------------------
      1          6           0       -1.178164   -0.004861   -0.009780
      2          6           0        0.273040    0.011411    0.018415
      3          7           0        1.431489   -0.009339   -0.009914
      4          1           0       -1.511092    0.006620    0.960045
      5          1           0       -1.586283   -0.846494   -0.471588
      6          1           0       -1.492303    0.865944   -0.470869
 ---------------------------------------------------------------------

 SCF Done:  E(RB2PLYPD3) =  -132.529224065     A.U. after   12 cycles
 E2(B2PLYPD3) =    -0.1802284018D+00 E(B2PLYPD3) =    -0.13270945246648D+03

 The electronic state is 1-A.
 Alpha  occ. eigenvalues --  -14.84260 -10.66293 -10.65347  -1.03952  -0.90702
 Alpha  occ. eigenvalues --   -0.60482  -0.55540  -0.54967  -0.44776  -0.39083
 Alpha  occ. eigenvalues --   -0.38974
 Alpha virt. eigenvalues --    0.03983   0.08197   0.08730   0.10172   0.11267
 Alpha virt. eigenvalues --    0.11379   0.15544   0.15811   0.16927   0.20134
 Alpha virt. eigenvalues --    0.20167   0.25487   0.33111   0.35279   0.35626

 Mulliken charges:
               1
     1  C   -0.064093
     2  C   -0.000602
     3  N   -0.210368
     4  H    0.089769
     5  H    0.091815
     6  H    0.093479
 Sum of Mulliken charges =   0.00000

 Dipole moment (field-independent basis, Debye):
    X=             -4.1518    Y=              0.0215    Z=              0.0380  Tot=              4.1520
 Quadrupole moment (field-independent basis, Debye-Ang):
   XX=            -20.8329   YY=            -17.6191   ZZ=            -17.7682
   XY=              0.0976   XZ=              0.0162   YZ=             -0.0104

 Normal termination of Gaussian 09 at Wed Aug 26 10:54:06 2020.
