 Gaussian 09, Revision D.01,
 Gaussian 09:  ES64L-G09RevD.01 24-Apr-2013

 --------------------
 #p B2PLYPD3/Def2QZVP
 --------------------

 ------------
 cyanomethane
 ------------
 Symbolic Z-matrix:
 Charge =  0 Multiplicity = 1

                         Standard orientation:
 ---------------------------------------------------------------------
 Center     Atomic      Atomic             Coordinates (Angstroms)
 Number     Number       Type             X           Y           Z
 ---------------------------------------------------------------------
      1          6           0       -1.186937    0.003428    0.004962
      2          6           0        0.279616   -0.010803   -0.005087
      3          7           0        1.437969    0.004535   -0.003215
      4          1           0       -1.475270   -0.375978    0.934879
      5          1           0       -1.606030   -0.621827   -0.779458
      6          1           0       -1.540562    1.010311   -0.132162
 ---------------------------------------------------------------------

 SCF Done:  E(RB2PLYPD3) =  -132.533917913     A.U. after   12 cycles
 E2(B2PLYPD3) =    -0.1805524555D+00 E(B2PLYPD3) =    -0.13271447036870D+03

 The electronic state is 1-A.
 Alpha  occ. eigenvalues --  -14.84268 -10.66634 -10.66360  -1.03919  -0.89605
 Alpha  occ. eigenvalues --   -0.59611  -0.55046  -0.53867  -0.44745  -0.39055
 Alpha  occ. eigenvalues --   -0.39003
 Alpha virt. eigenvalues --    0.03839   0.07877   0.08453   0.10220   0.11266
 Alpha virt. eigenvalues --    0.11370   0.15322   0.15964   0.16566   0.20103
 Alpha virt. eigenvalues --    0.20128   0.25158   0.32640   0.34822   0.35112

 Mulliken charges:
               1
     1  C   -0.080641
     2  C   -0.002381
     3  N   -0.208807
     4  H    0.100088
     5  H    0.093936
     6  H    0.097805
 Sum of Mulliken charges =   0.00000

 Dipole moment (field-independent basis, Debye):
    X=             -4.1444    Y=             -0.0103    Z=              0.0147  Tot=              4.1444
 Quadrupole moment (field-independent basis, Debye-Ang):
   XX=            -20.9908   YY=            -17.7145   ZZ=            -17.7567
   XY=             -0.0010   XZ=              0.0906   YZ=             -0.0354

 Normal termination of Gaussian 09 at Wed Aug 26 19:03:55 2020.
