 Gaussian 09, Revision D.01,
 Gaussian 09:  ES64L-G09RevD.01 24-Apr-2013

 --------------------
 #p B2PLYPD3/Def2QZVP
 --------------------

 ------------
 cyanomethane
 ------------
 Symbolic Z-matrix:
 Charge =  0 Multiplicity = 1

                         Standard orientation:
 ---------------------------------------------------------------------
 Center     Atomic      Atomic             Coordinates (Angstroms)
 Number     Number       Type             X           Y           Z
 ---------------------------------------------------------------------
      1          6           0       -1.179563    0.008089   -0.004347
      2          6           0        0.276741    0.009359    0.017296
      3          7           0        1.440684   -0.007482   -0.006296
      4          1           0       -1.521645    0.915091   -0.445725
      5          1           0       -1.589271   -0.106008    1.008456
      6          1           0       -1.556936   -0.861393   -0.596352
 ---------------------------------------------------------------------

 SCF Done:  E(RB2PLYPD3) =  -132.533618194     A.U. after   11 cycles
 E2(B2PLYPD3) =    -0.1813878737D+00 E(B2PLYPD3) =    -0.13271500606771D+03

 The electronic state is 1-A.
 Alpha  occ. eigenvalues --  -14.84491 -10.67284 -10.66571  -1.03742  -0.89179
 Alpha  occ. eigenvalues --   -0.59803  -0.54580  -0.53070  -0.44842  -0.38915
 Alpha  occ. eigenvalues --   -0.38730
 Alpha virt. eigenvalues --    0.03697   0.07407   0.07921   0.10162   0.11234
 Alpha virt. eigenvalues --    0.11494   0.15365   0.16285   0.16332   0.20092
 Alpha virt. eigenvalues --    0.20164   0.25364   0.32544   0.34092   0.34983

 Mulliken charges:
               1
     1  C   -0.083534
     2  C    0.000619
     3  N   -0.210404
     4  H    0.101674
     5  H    0.096062
     6  H    0.095582
 Sum of Mulliken charges =   0.00000

 Dipole moment (field-independent basis, Debye):
    X=             -4.1424    Y=              0.0078    Z=              0.0075  Tot=              4.1424
 Quadrupole moment (field-independent basis, Debye-Ang):
   XX=            -21.0011   YY=            -17.7625   ZZ=            -17.8279
   XY=              0.0815   XZ=             -0.0048   YZ=             -0.0483

 Normal termination of Gaussian 09 at Thu Aug 27 00:10:42 2020.
