 Gaussian 09, Revision D.01,
 Gaussian 09:  ES64L-G09RevD.01 24-Apr-2013

 --------------------
 #p B2PLYPD3/Def2QZVP
 --------------------

 ------------
 cyanomethane
 ------------
 Symbolic Z-matrix:
 Charge =  0 Multiplicity = 1

                         Standard orientation:
 ---------------------------------------------------------------------
 Center     Atomic      Atomic             Coordinates (Angstroms)
 Number     Number       Type             X           Y           Z
 ---------------------------------------------------------------------
      1          6           0        1.167698   -0.012385   -0.007588
      2          6           0       -0.272332    0.004532   -0.011487
      3          7           0       -1.434990   -0.001542    0.003416
      4          1           0        1.557319    1.046678   -0.109437
      5          1           0        1.601162   -0.622386   -0.732772
      6          1           0        1.514255   -0.366376    0.932746
 ---------------------------------------------------------------------

 SCF Done:  E(RB2PLYPD3) =  -132.531361612     A.U. after   12 cycles
 E2(B2PLYPD3) =    -0.1811177297D+00 E(B2PLYPD3) =    -0.13271247934187D+03

 The electronic state is 1-A.
 Alpha  occ. eigenvalues --  -14.84455 -10.66641 -10.66491  -1.03870  -0.89798
 Alpha  occ. eigenvalues --   -0.60827  -0.54585  -0.53341  -0.44897  -0.38952
 Alpha  occ. eigenvalues --   -0.38706
 Alpha virt. eigenvalues --    0.03770   0.07487   0.07943   0.10120   0.11351
 Alpha virt. eigenvalues --    0.11590   0.15545   0.16084   0.16884   0.20120
 Alpha virt. eigenvalues --    0.20176   0.25657   0.32634   0.34181   0.35309

 Mulliken charges:
               1
     1  C   -0.072639
     2  C    0.003049
     3  N   -0.210504
     4  H    0.091367
     5  H    0.095783
     6  H    0.092945
 Sum of Mulliken charges =   0.00000

 Dipole moment (field-independent basis, Debye):
    X=              4.1458    Y=             -0.0211    Z=              0.0226  Tot=              4.1459
 Quadrupole moment (field-independent basis, Debye-Ang):
   XX=            -20.8581   YY=            -17.7006   ZZ=            -17.8812
   XY=             -0.0690   XZ=              0.0267   YZ=              0.0373

 Normal termination of Gaussian 09 at Wed Aug 26 15:25:08 2020.
