 Gaussian 09, Revision D.01,
 Gaussian 09:  ES64L-G09RevD.01 24-Apr-2013

 --------------------
 #p B2PLYPD3/Def2QZVP
 --------------------

 ------------
 cyanomethane
 ------------
 Symbolic Z-matrix:
 Charge =  0 Multiplicity = 1

                         Standard orientation:
 ---------------------------------------------------------------------
 Center     Atomic      Atomic             Coordinates (Angstroms)
 Number     Number       Type             X           Y           Z
 ---------------------------------------------------------------------
      1          6           0        1.171009    0.006309    0.010367
      2          6           0       -0.269311    0.008135   -0.021435
      3          7           0       -1.436044   -0.004623    0.010152
      4          1           0        1.551345    1.025374   -0.078674
      5          1           0        1.544125   -0.608535   -0.848171
      6          1           0        1.546654   -0.471149    0.922190
 ---------------------------------------------------------------------

 SCF Done:  E(RB2PLYPD3) =  -132.533109500     A.U. after   11 cycles
 E2(B2PLYPD3) =    -0.1817589130D+00 E(B2PLYPD3) =    -0.13271486841303D+03

 The electronic state is 1-A.
 Alpha  occ. eigenvalues --  -14.84522 -10.67396 -10.66555  -1.03648  -0.89295
 Alpha  occ. eigenvalues --   -0.59876  -0.54340  -0.53231  -0.44845  -0.38736
 Alpha  occ. eigenvalues --   -0.38540
 Alpha virt. eigenvalues --    0.03680   0.07320   0.07570   0.10101   0.11310
 Alpha virt. eigenvalues --    0.11555   0.15454   0.15947   0.16517   0.20125
 Alpha virt. eigenvalues --    0.20190   0.25653   0.32611   0.33971   0.34765

 Mulliken charges:
               1
     1  C   -0.087302
     2  C    0.001858
     3  N   -0.212125
     4  H    0.101560
     5  H    0.095857
     6  H    0.100153
 Sum of Mulliken charges =   0.00000

 Dipole moment (field-independent basis, Debye):
    X=              4.1344    Y=             -0.0061    Z=             -0.0125  Tot=              4.1344
 Quadrupole moment (field-independent basis, Debye-Ang):
   XX=            -21.0764   YY=            -17.7152   ZZ=            -17.8540
   XY=             -0.0516   XZ=              0.0547   YZ=             -0.0274

 Normal termination of Gaussian 09 at Wed Aug 26 12:38:22 2020.
