 Gaussian 09, Revision D.01,
 Gaussian 09:  ES64L-G09RevD.01 24-Apr-2013

 --------------------
 #p B2PLYPD3/Def2QZVP
 --------------------

 ------------
 cyanomethane
 ------------
 Symbolic Z-matrix:
 Charge =  0 Multiplicity = 1

                         Standard orientation:
 ---------------------------------------------------------------------
 Center     Atomic      Atomic             Coordinates (Angstroms)
 Number     Number       Type             X           Y           Z
 ---------------------------------------------------------------------
      1          6           0        1.195093    0.029618    0.035505
      2          6           0       -0.276388   -0.042632   -0.050690
      3          7           0       -1.441156    0.024565    0.018033
      4          1           0        1.503565   -0.844321   -0.536092
      5          1           0        1.450213   -0.098572    0.950138
      6          1           0        1.622083    0.849022   -0.449167
 ---------------------------------------------------------------------

 SCF Done:  E(RB2PLYPD3) =  -132.516194372     A.U. after   12 cycles
 E2(B2PLYPD3) =    -0.1813226507D+00 E(B2PLYPD3) =    -0.13269751702301D+03

 The electronic state is 1-A.
 Alpha  occ. eigenvalues --  -14.84587 -10.66679 -10.65537  -1.03557  -0.90596
 Alpha  occ. eigenvalues --   -0.60131  -0.57377  -0.53351  -0.44788  -0.39134
 Alpha  occ. eigenvalues --   -0.38560
 Alpha virt. eigenvalues --    0.03886   0.07980   0.08454   0.10067   0.10921
 Alpha virt. eigenvalues --    0.11420   0.15149   0.15457   0.17462   0.20129
 Alpha virt. eigenvalues --    0.20206   0.25406   0.32529   0.34028   0.36541

 Mulliken charges:
               1
     1  C   -0.077892
     2  C    0.004539
     3  N   -0.214633
     4  H    0.084982
     5  H    0.106564
     6  H    0.096439
 Sum of Mulliken charges =   0.00000

 Dipole moment (field-independent basis, Debye):
    X=              4.1477    Y=             -0.0630    Z=             -0.0402  Tot=              4.1484
 Quadrupole moment (field-independent basis, Debye-Ang):
   XX=            -20.9065   YY=            -17.7957   ZZ=            -17.6655
   XY=              0.1426   XZ=             -0.0372   YZ=             -0.0941

 Normal termination of Gaussian 09 at Wed Aug 26 23:37:23 2020.
