 Gaussian 09, Revision D.01,
 Gaussian 09:  ES64L-G09RevD.01 24-Apr-2013

 --------------------
 #p B2PLYPD3/Def2QZVP
 --------------------

 ------------
 cyanomethane
 ------------
 Symbolic Z-matrix:
 Charge =  0 Multiplicity = 1

                         Standard orientation:
 ---------------------------------------------------------------------
 Center     Atomic      Atomic             Coordinates (Angstroms)
 Number     Number       Type             X           Y           Z
 ---------------------------------------------------------------------
      1          6           0       -1.180925   -0.000847   -0.022217
      2          6           0        0.296812    0.025366    0.006596
      3          7           0        1.445801   -0.012302   -0.012123
      4          1           0       -1.718343   -0.690340   -0.708211
      5          1           0       -1.648156    1.010074   -0.110318
      6          1           0       -1.449430   -0.380737    0.997113
 ---------------------------------------------------------------------

 SCF Done:  E(RB2PLYPD3) =  -132.528648921     A.U. after   12 cycles
 E2(B2PLYPD3) =    -0.1807631461D+00 E(B2PLYPD3) =    -0.13270941206740D+03

 The electronic state is 1-A.
 Alpha  occ. eigenvalues --  -14.84293 -10.68114 -10.66545  -1.04419  -0.88183
 Alpha  occ. eigenvalues --   -0.60189  -0.52984  -0.52071  -0.44956  -0.39459
 Alpha  occ. eigenvalues --   -0.39048
 Alpha virt. eigenvalues --    0.03548   0.07141   0.07879   0.10157   0.11396
 Alpha virt. eigenvalues --    0.11788   0.15207   0.15680   0.18092   0.20042
 Alpha virt. eigenvalues --    0.20392   0.25040   0.32142   0.33452   0.34934

 Mulliken charges:
               1
     1  C   -0.086172
     2  C    0.007173
     3  N   -0.201886
     4  H    0.096150
     5  H    0.094074
     6  H    0.090661
 Sum of Mulliken charges =   0.00000

 Dipole moment (field-independent basis, Debye):
    X=             -4.1422    Y=             -0.0056    Z=              0.0661  Tot=              4.1428
 Quadrupole moment (field-independent basis, Debye-Ang):
   XX=            -20.7164   YY=            -17.8040   ZZ=            -18.0286
   XY=              0.1067   XZ=              0.1350   YZ=              0.0131

 Normal termination of Gaussian 09 at Wed Aug 26 19:02:41 2020.
