 Gaussian 09, Revision D.01,
 Gaussian 09:  ES64L-G09RevD.01 24-Apr-2013

 --------------------
 #p B2PLYPD3/Def2QZVP
 --------------------

 ------------
 cyanomethane
 ------------
 Symbolic Z-matrix:
 Charge =  0 Multiplicity = 1

                         Standard orientation:
 ---------------------------------------------------------------------
 Center     Atomic      Atomic             Coordinates (Angstroms)
 Number     Number       Type             X           Y           Z
 ---------------------------------------------------------------------
      1          6           0       -1.159772    0.020696   -0.043237
      2          6           0        0.255374   -0.064970    0.029183
      3          7           0        1.430946    0.029167   -0.009895
      4          1           0       -1.543061   -0.143224    1.014253
      5          1           0       -1.548307   -0.752740   -0.577754
      6          1           0       -1.498867    0.957434   -0.282910
 ---------------------------------------------------------------------

 SCF Done:  E(RB2PLYPD3) =  -132.521075396     A.U. after   12 cycles
 E2(B2PLYPD3) =    -0.1826372094D+00 E(B2PLYPD3) =    -0.13270371260578D+03

 The electronic state is 1-A.
 Alpha  occ. eigenvalues --  -14.84853 -10.66792 -10.65887  -1.03282  -0.90707
 Alpha  occ. eigenvalues --   -0.61146  -0.57089  -0.52647  -0.44941  -0.38642
 Alpha  occ. eigenvalues --   -0.37936
 Alpha virt. eigenvalues --    0.03737   0.06930   0.07946   0.09946   0.10993
 Alpha virt. eigenvalues --    0.11742   0.15324   0.15785   0.17288   0.20162
 Alpha virt. eigenvalues --    0.20315   0.26386   0.32180   0.34128   0.36188

 Mulliken charges:
               1
     1  C   -0.068354
     2  C    0.008367
     3  N   -0.219650
     4  H    0.079684
     5  H    0.098549
     6  H    0.101403
 Sum of Mulliken charges =   0.00000

 Dipole moment (field-independent basis, Debye):
    X=             -4.1469    Y=             -0.0349    Z=              0.0434  Tot=              4.1473
 Quadrupole moment (field-independent basis, Debye-Ang):
   XX=            -20.9171   YY=            -17.6009   ZZ=            -17.9557
   XY=             -0.0938   XZ=             -0.0483   YZ=              0.0644

 Normal termination of Gaussian 09 at Wed Aug 26 20:40:29 2020.
