 Gaussian 09, Revision D.01,
 Gaussian 09:  ES64L-G09RevD.01 24-Apr-2013

 --------------------
 #p B2PLYPD3/Def2QZVP
 --------------------

 ------------
 cyanomethane
 ------------
 Symbolic Z-matrix:
 Charge =  0 Multiplicity = 1

                         Standard orientation:
 ---------------------------------------------------------------------
 Center     Atomic      Atomic             Coordinates (Angstroms)
 Number     Number       Type             X           Y           Z
 ---------------------------------------------------------------------
      1          6           0       -1.210767    0.020852   -0.006456
      2          6           0        0.281032    0.042139   -0.021811
      3          7           0        1.442822   -0.035741    0.017236
      4          1           0       -1.335431    0.941492   -0.371478
      5          1           0       -1.599378   -0.178893    1.032676
      6          1           0       -1.586540   -0.890357   -0.612246
 ---------------------------------------------------------------------

 SCF Done:  E(RB2PLYPD3) =  -132.514733232     A.U. after   12 cycles
 E2(B2PLYPD3) =    -0.1819498126D+00 E(B2PLYPD3) =    -0.13269668304463D+03

 The electronic state is 1-A.
 Alpha  occ. eigenvalues --  -14.84375 -10.67707 -10.66506  -1.03565  -0.89239
 Alpha  occ. eigenvalues --   -0.58509  -0.56272  -0.51716  -0.44556  -0.38935
 Alpha  occ. eigenvalues --   -0.38592
 Alpha virt. eigenvalues --    0.03403   0.06837   0.09236   0.10082   0.10668
 Alpha virt. eigenvalues --    0.11546   0.14614   0.15470   0.16497   0.19989
 Alpha virt. eigenvalues --    0.20259   0.24675   0.31907   0.33009   0.35523

 Mulliken charges:
               1
     1  C   -0.108024
     2  C   -0.003753
     3  N   -0.211586
     4  H    0.120535
     5  H    0.101076
     6  H    0.101752
 Sum of Mulliken charges =   0.00000

 Dipole moment (field-independent basis, Debye):
    X=             -4.1103    Y=              0.0186    Z=              0.0033  Tot=              4.1104
 Quadrupole moment (field-independent basis, Debye-Ang):
   XX=            -21.3934   YY=            -17.5291   ZZ=            -17.9235
   XY=              0.4749   XZ=             -0.2508   YZ=             -0.1075

 Normal termination of Gaussian 09 at Wed Aug 26 18:46:29 2020.
