 Gaussian 09, Revision D.01,
 Gaussian 09:  ES64L-G09RevD.01 24-Apr-2013

 --------------------
 #p B2PLYPD3/Def2QZVP
 --------------------

 ------------
 cyanomethane
 ------------
 Symbolic Z-matrix:
 Charge =  0 Multiplicity = 1

                         Standard orientation:
 ---------------------------------------------------------------------
 Center     Atomic      Atomic             Coordinates (Angstroms)
 Number     Number       Type             X           Y           Z
 ---------------------------------------------------------------------
      1          6           0       -1.179472    0.001611    0.004147
      2          6           0        0.285582   -0.004950   -0.008313
      3          7           0        1.436257   -0.000176    0.003295
      4          1           0       -1.529780    1.020953   -0.161969
      5          1           0       -1.567708   -0.356164    0.941505
      6          1           0       -1.592969   -0.643529   -0.777601
 ---------------------------------------------------------------------

 SCF Done:  E(RB2PLYPD3) =  -132.535770191     A.U. after   11 cycles
 E2(B2PLYPD3) =    -0.1801200110D+00 E(B2PLYPD3) =    -0.13271589020229D+03

 The electronic state is 1-A.
 Alpha  occ. eigenvalues --  -14.84141 -10.67104 -10.66230  -1.04279  -0.89081
 Alpha  occ. eigenvalues --   -0.59868  -0.54001  -0.53513  -0.44812  -0.39241
 Alpha  occ. eigenvalues --   -0.39201
 Alpha virt. eigenvalues --    0.03770   0.07922   0.08073   0.10207   0.11448
 Alpha virt. eigenvalues --    0.11502   0.15373   0.16391   0.16581   0.20049
 Alpha virt. eigenvalues --    0.20079   0.25216   0.32695   0.34628   0.34838

 Mulliken charges:
               1
     1  C   -0.079690
     2  C   -0.001547
     3  N   -0.203745
     4  H    0.096330
     5  H    0.095412
     6  H    0.093239
 Sum of Mulliken charges =   0.00000

 Dipole moment (field-independent basis, Debye):
    X=             -4.1315    Y=             -0.0034    Z=              0.0004  Tot=              4.1315
 Quadrupole moment (field-independent basis, Debye-Ang):
   XX=            -20.9057   YY=            -17.7249   ZZ=            -17.8151
   XY=              0.0567   XZ=             -0.0192   YZ=             -0.0161

 Normal termination of Gaussian 09 at Thu Aug 27 00:14:04 2020.
