 Gaussian 09, Revision D.01,
 Gaussian 09:  ES64L-G09RevD.01 24-Apr-2013

 --------------------
 #p B2PLYPD3/Def2QZVP
 --------------------

 ------------
 cyanomethane
 ------------
 Symbolic Z-matrix:
 Charge =  0 Multiplicity = 1

                         Standard orientation:
 ---------------------------------------------------------------------
 Center     Atomic      Atomic             Coordinates (Angstroms)
 Number     Number       Type             X           Y           Z
 ---------------------------------------------------------------------
      1          6           0        1.172943   -0.006419   -0.010647
      2          6           0       -0.267499    0.010374   -0.024394
      3          7           0       -1.418948    0.004161    0.026362
      4          1           0        1.646602   -0.263672    0.960269
      5          1           0        1.555983    1.020158   -0.274850
      6          1           0        1.297393   -0.809338   -0.659708
 ---------------------------------------------------------------------

 SCF Done:  E(RB2PLYPD3) =  -132.523639763     A.U. after   12 cycles
 E2(B2PLYPD3) =    -0.1806712713D+00 E(B2PLYPD3) =    -0.13270431103452D+03

 The electronic state is 1-A.
 Alpha  occ. eigenvalues --  -14.83919 -10.67076 -10.65976  -1.04183  -0.89934
 Alpha  occ. eigenvalues --   -0.59439  -0.56135  -0.52228  -0.44609  -0.38980
 Alpha  occ. eigenvalues --   -0.38658
 Alpha virt. eigenvalues --    0.03688   0.06996   0.08771   0.10202   0.11443
 Alpha virt. eigenvalues --    0.11815   0.14944   0.15599   0.16928   0.20068
 Alpha virt. eigenvalues --    0.20224   0.25629   0.32630   0.33599   0.35182

 Mulliken charges:
               1
     1  C   -0.101407
     2  C   -0.000921
     3  N   -0.208299
     4  H    0.094488
     5  H    0.104586
     6  H    0.111552
 Sum of Mulliken charges =   0.00000

 Dipole moment (field-independent basis, Debye):
    X=              4.0898    Y=             -0.0289    Z=             -0.0099  Tot=              4.0899
 Quadrupole moment (field-independent basis, Debye-Ang):
   XX=            -21.2694   YY=            -17.4054   ZZ=            -17.9446
   XY=              0.1380   XZ=              0.4448   YZ=              0.0908

 Normal termination of Gaussian 09 at Wed Aug 26 18:53:06 2020.
