 Gaussian 09, Revision D.01,
 Gaussian 09:  ES64L-G09RevD.01 24-Apr-2013

 --------------------
 #p B2PLYPD3/Def2QZVP
 --------------------

 ------------
 cyanomethane
 ------------
 Symbolic Z-matrix:
 Charge =  0 Multiplicity = 1

                         Standard orientation:
 ---------------------------------------------------------------------
 Center     Atomic      Atomic             Coordinates (Angstroms)
 Number     Number       Type             X           Y           Z
 ---------------------------------------------------------------------
      1          6           0       -1.174908    0.001917    0.002600
      2          6           0        0.278041    0.013968   -0.007214
      3          7           0        1.427422   -0.003754    0.003487
      4          1           0       -1.523103   -0.300087    0.974415
      5          1           0       -1.501909   -0.750925   -0.719435
      6          1           0       -1.585737    0.981981   -0.251701
 ---------------------------------------------------------------------

 SCF Done:  E(RB2PLYPD3) =  -132.535841982     A.U. after   11 cycles
 E2(B2PLYPD3) =    -0.1799861095D+00 E(B2PLYPD3) =    -0.13271582809168D+03

 The electronic state is 1-A.
 Alpha  occ. eigenvalues --  -14.83981 -10.66997 -10.66021  -1.04290  -0.89377
 Alpha  occ. eigenvalues --   -0.59557  -0.54255  -0.53945  -0.44718  -0.39189
 Alpha  occ. eigenvalues --   -0.39070
 Alpha virt. eigenvalues --    0.03788   0.08003   0.08128   0.10191   0.11456
 Alpha virt. eigenvalues --    0.11618   0.15433   0.16042   0.16521   0.20051
 Alpha virt. eigenvalues --    0.20113   0.25422   0.32832   0.34419   0.34900

 Mulliken charges:
               1
     1  C   -0.087479
     2  C   -0.002859
     3  N   -0.204321
     4  H    0.098235
     5  H    0.097866
     6  H    0.098558
 Sum of Mulliken charges =   0.00000

 Dipole moment (field-independent basis, Debye):
    X=             -4.1146    Y=             -0.0114    Z=              0.0031  Tot=              4.1146
 Quadrupole moment (field-independent basis, Debye-Ang):
   XX=            -21.0657   YY=            -17.6454   ZZ=            -17.7620
   XY=             -0.0045   XZ=             -0.0391   YZ=             -0.0098

 Normal termination of Gaussian 09 at Wed Aug 26 10:53:36 2020.
