 Gaussian 09, Revision D.01,
 Gaussian 09:  ES64L-G09RevD.01 24-Apr-2013

 --------------------
 #p B2PLYPD3/Def2QZVP
 --------------------

 ------------
 cyanomethane
 ------------
 Symbolic Z-matrix:
 Charge =  0 Multiplicity = 1

                         Standard orientation:
 ---------------------------------------------------------------------
 Center     Atomic      Atomic             Coordinates (Angstroms)
 Number     Number       Type             X           Y           Z
 ---------------------------------------------------------------------
      1          6           0        1.182500   -0.028428   -0.026017
      2          6           0       -0.301986   -0.056913    0.010875
      3          7           0       -1.438491    0.035159   -0.009039
      4          1           0        1.643681    1.047338   -0.274047
      5          1           0        1.641404   -0.683511   -0.564255
      6          1           0        1.501266   -0.097896    0.992429
 ---------------------------------------------------------------------

 SCF Done:  E(RB2PLYPD3) =  -132.513069376     A.U. after   12 cycles
 E2(B2PLYPD3) =    -0.1795787168D+00 E(B2PLYPD3) =    -0.13269264809308D+03

 The electronic state is 1-A.
 Alpha  occ. eigenvalues --  -14.84065 -10.66847 -10.66251  -1.04818  -0.89245
 Alpha  occ. eigenvalues --   -0.61157  -0.55582  -0.50804  -0.44951  -0.40013
 Alpha  occ. eigenvalues --   -0.39172
 Alpha virt. eigenvalues --    0.03251   0.07483   0.09147   0.10180   0.11032
 Alpha virt. eigenvalues --    0.11944   0.15398   0.15938   0.18079   0.19916
 Alpha virt. eigenvalues --    0.20234   0.24987   0.31841   0.33385   0.35611

 Mulliken charges:
               1
     1  C   -0.076562
     2  C    0.006250
     3  N   -0.197014
     4  H    0.080002
     5  H    0.101384
     6  H    0.085939
 Sum of Mulliken charges =   0.00000

 Dipole moment (field-independent basis, Debye):
    X=              4.1157    Y=             -0.0694    Z=              0.0854  Tot=              4.1172
 Quadrupole moment (field-independent basis, Debye-Ang):
   XX=            -20.6030   YY=            -17.7719   ZZ=            -17.9080
   XY=              0.2234   XZ=              0.0080   YZ=              0.1791

 Normal termination of Gaussian 09 at Wed Aug 26 19:19:58 2020.
