 Gaussian 09, Revision D.01,
 Gaussian 09:  ES64L-G09RevD.01 24-Apr-2013

 --------------------
 #p B2PLYPD3/Def2QZVP
 --------------------

 ------------
 cyanomethane
 ------------
 Symbolic Z-matrix:
 Charge =  0 Multiplicity = 1

                         Standard orientation:
 ---------------------------------------------------------------------
 Center     Atomic      Atomic             Coordinates (Angstroms)
 Number     Number       Type             X           Y           Z
 ---------------------------------------------------------------------
      1          6           0        1.182130    0.003369   -0.006684
      2          6           0       -0.283675   -0.027549   -0.001823
      3          7           0       -1.440226    0.015993   -0.004640
      4          1           0        1.616797    1.006765   -0.328303
      5          1           0        1.600398   -0.808549   -0.619877
      6          1           0        1.473655   -0.165089    1.031705
 ---------------------------------------------------------------------

 SCF Done:  E(RB2PLYPD3) =  -132.532118704     A.U. after   12 cycles
 E2(B2PLYPD3) =    -0.1810779880D+00 E(B2PLYPD3) =    -0.13271319669172D+03

 The electronic state is 1-A.
 Alpha  occ. eigenvalues --  -14.84326 -10.67857 -10.66446  -1.04011  -0.88644
 Alpha  occ. eigenvalues --   -0.59400  -0.53695  -0.52979  -0.44822  -0.39071
 Alpha  occ. eigenvalues --   -0.38903
 Alpha virt. eigenvalues --    0.03562   0.07265   0.08022   0.10169   0.11349
 Alpha virt. eigenvalues --    0.11546   0.15294   0.15671   0.17071   0.20080
 Alpha virt. eigenvalues --    0.20134   0.25243   0.32327   0.33986   0.34588

 Mulliken charges:
               1
     1  C   -0.091775
     2  C    0.000924
     3  N   -0.206505
     4  H    0.098512
     5  H    0.099556
     6  H    0.099288
 Sum of Mulliken charges =   0.00000

 Dipole moment (field-independent basis, Debye):
    X=              4.1285    Y=             -0.0344    Z=              0.0391  Tot=              4.1289
 Quadrupole moment (field-independent basis, Debye-Ang):
   XX=            -21.0296   YY=            -17.7266   ZZ=            -17.8814
   XY=              0.0931   XZ=             -0.0593   YZ=              0.0203

 Normal termination of Gaussian 09 at Wed Aug 26 11:50:04 2020.
