 Gaussian 09, Revision D.01,
 Gaussian 09:  ES64L-G09RevD.01 24-Apr-2013

 --------------------
 #p B2PLYPD3/Def2QZVP
 --------------------

 ------------
 cyanomethane
 ------------
 Symbolic Z-matrix:
 Charge =  0 Multiplicity = 1

                         Standard orientation:
 ---------------------------------------------------------------------
 Center     Atomic      Atomic             Coordinates (Angstroms)
 Number     Number       Type             X           Y           Z
 ---------------------------------------------------------------------
      1          6           0        1.152554   -0.004354   -0.016254
      2          6           0       -0.268622    0.026596   -0.026076
      3          7           0       -1.435947   -0.018906    0.008743
      4          1           0        1.512687    0.956297   -0.012555
      5          1           0        1.717665   -0.553052   -0.672027
      6          1           0        1.517693   -0.404355    0.877361
 ---------------------------------------------------------------------

 SCF Done:  E(RB2PLYPD3) =  -132.520121181     A.U. after   12 cycles
 E2(B2PLYPD3) =    -0.1814771544D+00 E(B2PLYPD3) =    -0.13270159833494D+03

 The electronic state is 1-A.
 Alpha  occ. eigenvalues --  -14.84741 -10.66800 -10.64945  -1.03808  -0.91189
 Alpha  occ. eigenvalues --   -0.63199  -0.55333  -0.53354  -0.45102  -0.38911
 Alpha  occ. eigenvalues --   -0.38595
 Alpha virt. eigenvalues --    0.03905   0.07439   0.08103   0.10004   0.11306
 Alpha virt. eigenvalues --    0.11784   0.15734   0.16150   0.17951   0.20130
 Alpha virt. eigenvalues --    0.20519   0.26052   0.33237   0.34932   0.35890

 Mulliken charges:
               1
     1  C   -0.039788
     2  C    0.016031
     3  N   -0.214299
     4  H    0.082538
     5  H    0.080374
     6  H    0.075144
 Sum of Mulliken charges =   0.00000

 Dipole moment (field-independent basis, Debye):
    X=              4.2007    Y=              0.0115    Z=              0.0481  Tot=              4.2010
 Quadrupole moment (field-independent basis, Debye-Ang):
   XX=            -20.3051   YY=            -17.7217   ZZ=            -18.0280
   XY=             -0.2223   XZ=              0.0931   YZ=              0.0224

 Normal termination of Gaussian 09 at Wed Aug 26 23:33:34 2020.
