 Gaussian 09, Revision D.01,
 Gaussian 09:  ES64L-G09RevD.01 24-Apr-2013

 --------------------
 #p B2PLYPD3/Def2QZVP
 --------------------

 ------------
 cyanomethane
 ------------
 Symbolic Z-matrix:
 Charge =  0 Multiplicity = 1

                         Standard orientation:
 ---------------------------------------------------------------------
 Center     Atomic      Atomic             Coordinates (Angstroms)
 Number     Number       Type             X           Y           Z
 ---------------------------------------------------------------------
      1          6           0       -1.180827    0.012569    0.002537
      2          6           0        0.283585   -0.012030   -0.018526
      3          7           0        1.427323    0.001983    0.008377
      4          1           0       -1.504262    0.949527   -0.386592
      5          1           0       -1.525987   -0.133446    1.026963
      6          1           0       -1.577558   -0.833192   -0.603078
 ---------------------------------------------------------------------

 SCF Done:  E(RB2PLYPD3) =  -132.535366061     A.U. after   11 cycles
 E2(B2PLYPD3) =    -0.1795632405D+00 E(B2PLYPD3) =    -0.13271492930122D+03

 The electronic state is 1-A.
 Alpha  occ. eigenvalues --  -14.83827 -10.67181 -10.65882  -1.04473  -0.89114
 Alpha  occ. eigenvalues --   -0.59137  -0.54791  -0.53313  -0.44668  -0.39390
 Alpha  occ. eigenvalues --   -0.39208
 Alpha virt. eigenvalues --    0.03763   0.07981   0.08413   0.10213   0.11435
 Alpha virt. eigenvalues --    0.11652   0.15334   0.16196   0.16327   0.20016
 Alpha virt. eigenvalues --    0.20076   0.25235   0.32691   0.34269   0.35039

 Mulliken charges:
               1
     1  C   -0.091310
     2  C   -0.004974
     3  N   -0.201174
     4  H    0.103218
     5  H    0.098776
     6  H    0.095464
 Sum of Mulliken charges =   0.00000

 Dipole moment (field-independent basis, Debye):
    X=             -4.1042    Y=             -0.0047    Z=             -0.0029  Tot=              4.1043
 Quadrupole moment (field-independent basis, Debye-Ang):
   XX=            -21.1111   YY=            -17.6355   ZZ=            -17.7364
   XY=              0.0495   XZ=             -0.0523   YZ=             -0.0471

 Normal termination of Gaussian 09 at Wed Aug 26 23:59:35 2020.
