 Gaussian 09, Revision D.01,
 Gaussian 09:  ES64L-G09RevD.01 24-Apr-2013

 --------------------
 #p B2PLYPD3/Def2QZVP
 --------------------

 ------------
 cyanomethane
 ------------
 Symbolic Z-matrix:
 Charge =  0 Multiplicity = 1

                         Standard orientation:
 ---------------------------------------------------------------------
 Center     Atomic      Atomic             Coordinates (Angstroms)
 Number     Number       Type             X           Y           Z
 ---------------------------------------------------------------------
      1          6           0       -1.190312   -0.004456   -0.008905
      2          6           0        0.277263    0.008464    0.037992
      3          7           0        1.441394   -0.000220   -0.019241
      4          1           0       -1.527059   -0.132359    0.957704
      5          1           0       -1.499431   -0.838026   -0.599196
      6          1           0       -1.584976    0.947879   -0.398340
 ---------------------------------------------------------------------

 SCF Done:  E(RB2PLYPD3) =  -132.531567489     A.U. after   12 cycles
 E2(B2PLYPD3) =    -0.1811854208D+00 E(B2PLYPD3) =    -0.13271275290982D+03

 The electronic state is 1-A.
 Alpha  occ. eigenvalues --  -14.84472 -10.66606 -10.66546  -1.03637  -0.89689
 Alpha  occ. eigenvalues --   -0.59561  -0.54904  -0.54219  -0.44763  -0.38883
 Alpha  occ. eigenvalues --   -0.38851
 Alpha virt. eigenvalues --    0.03755   0.07727   0.08451   0.10184   0.11189
 Alpha virt. eigenvalues --    0.11235   0.15267   0.15723   0.16686   0.20133
 Alpha virt. eigenvalues --    0.20144   0.25223   0.32606   0.34751   0.35022

 Mulliken charges:
               1
     1  C   -0.081328
     2  C   -0.000783
     3  N   -0.212172
     4  H    0.096924
     5  H    0.100187
     6  H    0.097173
 Sum of Mulliken charges =   0.00000

 Dipole moment (field-independent basis, Debye):
    X=             -4.1494    Y=             -0.0143    Z=              0.0517  Tot=              4.1497
 Quadrupole moment (field-independent basis, Debye-Ang):
   XX=            -21.0165   YY=            -17.6472   ZZ=            -17.8442
   XY=             -0.0330   XZ=              0.0413   YZ=              0.0153

 Normal termination of Gaussian 09 at Wed Aug 26 14:10:49 2020.
