 Gaussian 09, Revision D.01,
 Gaussian 09:  ES64L-G09RevD.01 24-Apr-2013

 --------------------
 #p B2PLYPD3/Def2QZVP
 --------------------

 ------------
 cyanomethane
 ------------
 Symbolic Z-matrix:
 Charge =  0 Multiplicity = 1

                         Standard orientation:
 ---------------------------------------------------------------------
 Center     Atomic      Atomic             Coordinates (Angstroms)
 Number     Number       Type             X           Y           Z
 ---------------------------------------------------------------------
      1          6           0       -1.167890    0.020028   -0.008054
      2          6           0        0.269272   -0.003817   -0.036325
      3          7           0        1.423724    0.005633    0.015935
      4          1           0       -1.451162   -0.316538    0.967873
      5          1           0       -1.511222   -0.784840   -0.623201
      6          1           0       -1.611974    0.964681   -0.189945
 ---------------------------------------------------------------------

 SCF Done:  E(RB2PLYPD3) =  -132.531614051     A.U. after   12 cycles
 E2(B2PLYPD3) =    -0.1804112836D+00 E(B2PLYPD3) =    -0.13271202533480D+03

 The electronic state is 1-A.
 Alpha  occ. eigenvalues --  -14.84094 -10.66244 -10.66118  -1.04086  -0.90221
 Alpha  occ. eigenvalues --   -0.60235  -0.55844  -0.53382  -0.44739  -0.39163
 Alpha  occ. eigenvalues --   -0.38638
 Alpha virt. eigenvalues --    0.03849   0.07971   0.08264   0.10113   0.11188
 Alpha virt. eigenvalues --    0.11878   0.15468   0.15610   0.17270   0.20045
 Alpha virt. eigenvalues --    0.20246   0.25753   0.33011   0.34160   0.35742

 Mulliken charges:
               1
     1  C   -0.078122
     2  C    0.000654
     3  N   -0.209167
     4  H    0.091329
     5  H    0.093607
     6  H    0.101699
 Sum of Mulliken charges =   0.00000

 Dipole moment (field-independent basis, Debye):
    X=             -4.1354    Y=             -0.0543    Z=              0.0292  Tot=              4.1358
 Quadrupole moment (field-independent basis, Debye-Ang):
   XX=            -20.9813   YY=            -17.4473   ZZ=            -17.9505
   XY=             -0.0176   XZ=             -0.1469   YZ=             -0.0114

 Normal termination of Gaussian 09 at Wed Aug 26 21:27:30 2020.
