 Gaussian 09, Revision D.01,
 Gaussian 09:  ES64L-G09RevD.01 24-Apr-2013

 --------------------
 #p B2PLYPD3/Def2QZVP
 --------------------

 ------------
 cyanomethane
 ------------
 Symbolic Z-matrix:
 Charge =  0 Multiplicity = 1

                         Standard orientation:
 ---------------------------------------------------------------------
 Center     Atomic      Atomic             Coordinates (Angstroms)
 Number     Number       Type             X           Y           Z
 ---------------------------------------------------------------------
      1          6           0       -1.185175   -0.007147    0.004242
      2          6           0        0.288758    0.025079   -0.000404
      3          7           0        1.432924   -0.010949   -0.002294
      4          1           0       -1.517604   -0.262947    0.965716
      5          1           0       -1.555620   -0.745808   -0.699169
      6          1           0       -1.578737    0.977803   -0.273518
 ---------------------------------------------------------------------

 SCF Done:  E(RB2PLYPD3) =  -132.535297602     A.U. after   11 cycles
 E2(B2PLYPD3) =    -0.1794668774D+00 E(B2PLYPD3) =    -0.13271476447982D+03

 The electronic state is 1-A.
 Alpha  occ. eigenvalues --  -14.83922 -10.66869 -10.66008  -1.04470  -0.89193
 Alpha  occ. eigenvalues --   -0.59485  -0.54465  -0.53714  -0.44725  -0.39436
 Alpha  occ. eigenvalues --   -0.39367
 Alpha virt. eigenvalues --    0.03809   0.08127   0.08517   0.10228   0.11421
 Alpha virt. eigenvalues --    0.11498   0.15348   0.16254   0.16564   0.20014
 Alpha virt. eigenvalues --    0.20056   0.25079   0.32704   0.34687   0.35107

 Mulliken charges:
               1
     1  C   -0.082092
     2  C   -0.004531
     3  N   -0.201031
     4  H    0.097947
     5  H    0.095499
     6  H    0.094207
 Sum of Mulliken charges =   0.00000

 Dipole moment (field-independent basis, Debye):
    X=             -4.1212    Y=              0.0060    Z=              0.0138  Tot=              4.1213
 Quadrupole moment (field-independent basis, Debye-Ang):
   XX=            -20.9584   YY=            -17.6885   ZZ=            -17.7434
   XY=              0.0605   XZ=              0.0256   YZ=             -0.0112

 Normal termination of Gaussian 09 at Thu Aug 27 00:01:05 2020.
