 Gaussian 09, Revision D.01,
 Gaussian 09:  ES64L-G09RevD.01 24-Apr-2013

 --------------------
 #p B2PLYPD3/Def2QZVP
 --------------------

 ------------
 cyanomethane
 ------------
 Symbolic Z-matrix:
 Charge =  0 Multiplicity = 1

                         Standard orientation:
 ---------------------------------------------------------------------
 Center     Atomic      Atomic             Coordinates (Angstroms)
 Number     Number       Type             X           Y           Z
 ---------------------------------------------------------------------
      1          6           0       -1.160655   -0.007660   -0.044577
      2          6           0        0.289799    0.060979    0.028748
      3          7           0        1.415423   -0.024524   -0.002518
      4          1           0       -1.625294   -0.415482    0.944912
      5          1           0       -1.412773   -0.655794   -0.727023
      6          1           0       -1.644758    0.923031   -0.105287
 ---------------------------------------------------------------------

 SCF Done:  E(RB2PLYPD3) =  -132.519460981     A.U. after   11 cycles
 E2(B2PLYPD3) =    -0.1783201134D+00 E(B2PLYPD3) =    -0.13269778109397D+03

 The electronic state is 1-A.
 Alpha  occ. eigenvalues --  -14.83568 -10.66111 -10.65548  -1.05258  -0.89939
 Alpha  occ. eigenvalues --   -0.60567  -0.56980  -0.51432  -0.44815  -0.40117
 Alpha  occ. eigenvalues --   -0.39318
 Alpha virt. eigenvalues --    0.03707   0.07792   0.08875   0.10274   0.11444
 Alpha virt. eigenvalues --    0.12159   0.15564   0.16544   0.17187   0.19797
 Alpha virt. eigenvalues --    0.20079   0.25802   0.32178   0.33978   0.36695

 Mulliken charges:
               1
     1  C   -0.074546
     2  C   -0.000103
     3  N   -0.192903
     4  H    0.073010
     5  H    0.104102
     6  H    0.090440
 Sum of Mulliken charges =   0.00000

 Dipole moment (field-independent basis, Debye):
    X=             -4.0794    Y=              0.0386    Z=              0.0089  Tot=              4.0796
 Quadrupole moment (field-independent basis, Debye-Ang):
   XX=            -20.6855   YY=            -17.6217   ZZ=            -17.8056
   XY=              0.0367   XZ=             -0.1473   YZ=              0.1669

 Normal termination of Gaussian 09 at Wed Aug 26 23:48:50 2020.
