 Gaussian 09, Revision D.01,
 Gaussian 09:  ES64L-G09RevD.01 24-Apr-2013

 --------------------
 #p B2PLYPD3/Def2QZVP
 --------------------

 ------------
 cyanomethane
 ------------
 Symbolic Z-matrix:
 Charge =  0 Multiplicity = 1

                         Standard orientation:
 ---------------------------------------------------------------------
 Center     Atomic      Atomic             Coordinates (Angstroms)
 Number     Number       Type             X           Y           Z
 ---------------------------------------------------------------------
      1          6           0        1.181743    0.030199   -0.000455
      2          6           0       -0.287704   -0.024627   -0.056929
      3          7           0       -1.450380    0.003133    0.027583
      4          1           0        1.507783    0.994159    0.014502
      5          1           0        1.678150   -0.554705   -0.739630
      6          1           0        1.602490   -0.494812    0.876350
 ---------------------------------------------------------------------

 SCF Done:  E(RB2PLYPD3) =  -132.526073042     A.U. after   12 cycles
 E2(B2PLYPD3) =    -0.1814787902D+00 E(B2PLYPD3) =    -0.13270755183182D+03

 The electronic state is 1-A.
 Alpha  occ. eigenvalues --  -14.84767 -10.66907 -10.66437  -1.03788  -0.89561
 Alpha  occ. eigenvalues --   -0.61043  -0.56017  -0.51630  -0.45042  -0.39277
 Alpha  occ. eigenvalues --   -0.38704
 Alpha virt. eigenvalues --    0.03667   0.07404   0.08036   0.10205   0.10932
 Alpha virt. eigenvalues --    0.11681   0.15331   0.16448   0.17266   0.19965
 Alpha virt. eigenvalues --    0.20230   0.25333   0.32536   0.34106   0.36017

 Mulliken charges:
               1
     1  C   -0.056544
     2  C    0.008003
     3  N   -0.210480
     4  H    0.097975
     5  H    0.082040
     6  H    0.079006
 Sum of Mulliken charges =   0.00000

 Dipole moment (field-independent basis, Debye):
    X=              4.1753    Y=             -0.0455    Z=             -0.0211  Tot=              4.1756
 Quadrupole moment (field-independent basis, Debye-Ang):
   XX=            -20.5342   YY=            -17.6323   ZZ=            -18.1806
   XY=             -0.2113   XZ=              0.1608   YZ=              0.0202

 Normal termination of Gaussian 09 at Wed Aug 26 23:53:44 2020.
