 Gaussian 09, Revision D.01,
 Gaussian 09:  ES64L-G09RevD.01 24-Apr-2013

 --------------------
 #p B2PLYPD3/Def2QZVP
 --------------------

 ------------
 cyanomethane
 ------------
 Symbolic Z-matrix:
 Charge =  0 Multiplicity = 1

                         Standard orientation:
 ---------------------------------------------------------------------
 Center     Atomic      Atomic             Coordinates (Angstroms)
 Number     Number       Type             X           Y           Z
 ---------------------------------------------------------------------
      1          6           0        1.193058   -0.005380    0.001644
      2          6           0       -0.279665   -0.012575   -0.012035
      3          7           0       -1.440108    0.014946    0.004054
      4          1           0        1.489537   -0.664165   -0.782293
      5          1           0        1.470634   -0.370847    0.971084
      6          1           0        1.640229    1.038121   -0.154825
 ---------------------------------------------------------------------

 SCF Done:  E(RB2PLYPD3) =  -132.530906459     A.U. after   12 cycles
 E2(B2PLYPD3) =    -0.1811462989D+00 E(B2PLYPD3) =    -0.13271205275775D+03

 The electronic state is 1-A.
 Alpha  occ. eigenvalues --  -14.84299 -10.67504 -10.66419  -1.03780  -0.89057
 Alpha  occ. eigenvalues --   -0.58793  -0.55061  -0.53080  -0.44685  -0.38953
 Alpha  occ. eigenvalues --   -0.38839
 Alpha virt. eigenvalues --    0.03623   0.07398   0.08493   0.10196   0.11191
 Alpha virt. eigenvalues --    0.11407   0.15179   0.15517   0.16616   0.20104
 Alpha virt. eigenvalues --    0.20154   0.25032   0.32196   0.34179   0.34830

 Mulliken charges:
               1
     1  C   -0.096890
     2  C   -0.002212
     3  N   -0.209622
     4  H    0.105357
     5  H    0.105152
     6  H    0.098217
 Sum of Mulliken charges =   0.00000

 Dipole moment (field-independent basis, Debye):
    X=              4.1308    Y=             -0.0399    Z=              0.0034  Tot=              4.1310
 Quadrupole moment (field-independent basis, Debye-Ang):
   XX=            -21.1967   YY=            -17.7461   ZZ=            -17.7346
   XY=              0.1771   XZ=              0.0045   YZ=              0.0253

 Normal termination of Gaussian 09 at Wed Aug 26 10:56:58 2020.
