 Gaussian 09, Revision D.01,
 Gaussian 09:  ES64L-G09RevD.01 24-Apr-2013

 --------------------
 #p B2PLYPD3/Def2QZVP
 --------------------

 ------------
 cyanomethane
 ------------
 Symbolic Z-matrix:
 Charge =  0 Multiplicity = 1

                         Standard orientation:
 ---------------------------------------------------------------------
 Center     Atomic      Atomic             Coordinates (Angstroms)
 Number     Number       Type             X           Y           Z
 ---------------------------------------------------------------------
      1          6           0       -1.180716   -0.004438    0.008197
      2          6           0        0.282800    0.030060   -0.004500
      3          7           0        1.421389   -0.013513   -0.001590
      4          1           0       -1.474180   -0.323703    0.991296
      5          1           0       -1.534669   -0.759846   -0.755820
      6          1           0       -1.553384    1.024408   -0.246525
 ---------------------------------------------------------------------

 SCF Done:  E(RB2PLYPD3) =  -132.533307360     A.U. after   12 cycles
 E2(B2PLYPD3) =    -0.1794420367D+00 E(B2PLYPD3) =    -0.13271274939625D+03

 The electronic state is 1-A.
 Alpha  occ. eigenvalues --  -14.83618 -10.67774 -10.65661  -1.04621  -0.88755
 Alpha  occ. eigenvalues --   -0.58473  -0.54379  -0.53233  -0.44577  -0.39378
 Alpha  occ. eigenvalues --   -0.39245
 Alpha virt. eigenvalues --    0.03637   0.07833   0.08359   0.10197   0.11583
 Alpha virt. eigenvalues --    0.11738   0.15275   0.15955   0.16220   0.19995
 Alpha virt. eigenvalues --    0.20072   0.25244   0.32517   0.33845   0.34654

 Mulliken charges:
               1
     1  C   -0.106374
     2  C   -0.005582
     3  N   -0.198682
     4  H    0.106693
     5  H    0.101170
     6  H    0.102775
 Sum of Mulliken charges =   0.00000

 Dipole moment (field-independent basis, Debye):
    X=             -4.0736    Y=              0.0071    Z=              0.0133  Tot=              4.0737
 Quadrupole moment (field-independent basis, Debye-Ang):
   XX=            -21.3206   YY=            -17.5916   ZZ=            -17.6944
   XY=              0.0792   XZ=              0.0407   YZ=             -0.0366

 Normal termination of Gaussian 09 at Wed Aug 26 12:55:18 2020.
