 Gaussian 09, Revision D.01,
 Gaussian 09:  ES64L-G09RevD.01 24-Apr-2013

 --------------------
 #p B2PLYPD3/Def2QZVP
 --------------------

 ------------
 cyanomethane
 ------------
 Symbolic Z-matrix:
 Charge =  0 Multiplicity = 1

                         Standard orientation:
 ---------------------------------------------------------------------
 Center     Atomic      Atomic             Coordinates (Angstroms)
 Number     Number       Type             X           Y           Z
 ---------------------------------------------------------------------
      1          6           0       -1.164963    0.004914    0.046548
      2          6           0        0.247956    0.020025   -0.066314
      3          7           0        1.433612   -0.007826    0.018320
      4          1           0       -1.573262   -0.834678   -0.583515
      5          1           0       -1.609415    0.892021   -0.375502
      6          1           0       -1.350565   -0.152198    0.949372
 ---------------------------------------------------------------------

 SCF Done:  E(RB2PLYPD3) =  -132.507369209     A.U. after   12 cycles
 E2(B2PLYPD3) =    -0.1832321497D+00 E(B2PLYPD3) =    -0.13269060135872D+03

 The electronic state is 1-A.
 Alpha  occ. eigenvalues --  -14.85018 -10.66977 -10.65509  -1.02973  -0.91358
 Alpha  occ. eigenvalues --   -0.60880  -0.57899  -0.53127  -0.44881  -0.38351
 Alpha  occ. eigenvalues --   -0.37852
 Alpha virt. eigenvalues --    0.03844   0.06960   0.07701   0.10100   0.11097
 Alpha virt. eigenvalues --    0.11430   0.15569   0.15885   0.16306   0.20156
 Alpha virt. eigenvalues --    0.20341   0.26361   0.32234   0.33749   0.36309

 Mulliken charges:
               1
     1  C   -0.086616
     2  C    0.006658
     3  N   -0.224715
     4  H    0.088139
     5  H    0.096203
     6  H    0.120331
 Sum of Mulliken charges =   0.00000

 Dipole moment (field-independent basis, Debye):
    X=             -4.1570    Y=              0.0006    Z=             -0.0267  Tot=              4.1571
 Quadrupole moment (field-independent basis, Debye-Ang):
   XX=            -20.9857   YY=            -17.8181   ZZ=            -17.6929
   XY=              0.0065   XZ=              0.1403   YZ=             -0.0801

 Normal termination of Gaussian 09 at Wed Aug 26 21:32:02 2020.
