 Gaussian 09, Revision D.01,
 Gaussian 09:  ES64L-G09RevD.01 24-Apr-2013

 --------------------
 #p B2PLYPD3/Def2QZVP
 --------------------

 ------------
 cyanomethane
 ------------
 Symbolic Z-matrix:
 Charge =  0 Multiplicity = 1

                         Standard orientation:
 ---------------------------------------------------------------------
 Center     Atomic      Atomic             Coordinates (Angstroms)
 Number     Number       Type             X           Y           Z
 ---------------------------------------------------------------------
      1          6           0       -1.179527   -0.010083   -0.006804
      2          6           0        0.278909    0.014162   -0.014894
      3          7           0        1.438332   -0.004254    0.006206
      4          1           0       -1.548724   -0.866797   -0.539128
      5          1           0       -1.594332    0.930568   -0.434437
      6          1           0       -1.521555   -0.058476    1.060305
 ---------------------------------------------------------------------

 SCF Done:  E(RB2PLYPD3) =  -132.533722855     A.U. after   11 cycles
 E2(B2PLYPD3) =    -0.1811105660D+00 E(B2PLYPD3) =    -0.13271483342103D+03

 The electronic state is 1-A.
 Alpha  occ. eigenvalues --  -14.84352 -10.67579 -10.66439  -1.03908  -0.88923
 Alpha  occ. eigenvalues --   -0.59582  -0.54291  -0.52953  -0.44810  -0.39021
 Alpha  occ. eigenvalues --   -0.38790
 Alpha virt. eigenvalues --    0.03662   0.07497   0.07824   0.10166   0.11298
 Alpha virt. eigenvalues --    0.11565   0.15334   0.16076   0.16517   0.20070
 Alpha virt. eigenvalues --    0.20141   0.25326   0.32488   0.33843   0.34920

 Mulliken charges:
               1
     1  C   -0.089011
     2  C    0.000305
     3  N   -0.208185
     4  H    0.102811
     5  H    0.097087
     6  H    0.096992
 Sum of Mulliken charges =   0.00000

 Dipole moment (field-independent basis, Debye):
    X=             -4.1305    Y=              0.0040    Z=              0.0020  Tot=              4.1305
 Quadrupole moment (field-independent basis, Debye-Ang):
   XX=            -21.0563   YY=            -17.7427   ZZ=            -17.8239
   XY=             -0.0123   XZ=             -0.0221   YZ=              0.0421

 Normal termination of Gaussian 09 at Wed Aug 26 21:56:11 2020.
