 Gaussian 09, Revision D.01,
 Gaussian 09:  ES64L-G09RevD.01 24-Apr-2013

 --------------------
 #p B2PLYPD3/Def2QZVP
 --------------------

 ------------
 cyanomethane
 ------------
 Symbolic Z-matrix:
 Charge =  0 Multiplicity = 1

                         Standard orientation:
 ---------------------------------------------------------------------
 Center     Atomic      Atomic             Coordinates (Angstroms)
 Number     Number       Type             X           Y           Z
 ---------------------------------------------------------------------
      1          6           0        1.187619    0.001947   -0.006355
      2          6           0       -0.287255    0.001441   -0.019377
      3          7           0       -1.434636    0.001580    0.014273
      4          1           0        1.584084   -0.262613    0.989152
      5          1           0        1.566996    0.978495   -0.254149
      6          1           0        1.489188   -0.747266   -0.680522
 ---------------------------------------------------------------------

 SCF Done:  E(RB2PLYPD3) =  -132.534323423     A.U. after   12 cycles
 E2(B2PLYPD3) =    -0.1797705231D+00 E(B2PLYPD3) =    -0.13271409394583D+03

 The electronic state is 1-A.
 Alpha  occ. eigenvalues --  -14.83994 -10.66918 -10.66088  -1.04331  -0.89221
 Alpha  occ. eigenvalues --   -0.59365  -0.55133  -0.53173  -0.44714  -0.39405
 Alpha  occ. eigenvalues --   -0.39204
 Alpha virt. eigenvalues --    0.03778   0.07922   0.08662   0.10230   0.11254
 Alpha virt. eigenvalues --    0.11572   0.15301   0.16056   0.16662   0.20003
 Alpha virt. eigenvalues --    0.20109   0.25031   0.32684   0.34405   0.35314

 Mulliken charges:
               1
     1  C   -0.083851
     2  C   -0.004353
     3  N   -0.202802
     4  H    0.092229
     5  H    0.098476
     6  H    0.100300
 Sum of Mulliken charges =   0.00000

 Dipole moment (field-independent basis, Debye):
    X=              4.1264    Y=             -0.0130    Z=             -0.0148  Tot=              4.1265
 Quadrupole moment (field-independent basis, Debye-Ang):
   XX=            -20.9920   YY=            -17.6279   ZZ=            -17.8140
   XY=              0.0276   XZ=              0.1606   YZ=              0.0397

 Normal termination of Gaussian 09 at Wed Aug 26 16:35:10 2020.
