 Gaussian 09, Revision D.01,
 Gaussian 09:  ES64L-G09RevD.01 24-Apr-2013

 --------------------
 #p B2PLYPD3/Def2QZVP
 --------------------

 ------------
 cyanomethane
 ------------
 Symbolic Z-matrix:
 Charge =  0 Multiplicity = 1

                         Standard orientation:
 ---------------------------------------------------------------------
 Center     Atomic      Atomic             Coordinates (Angstroms)
 Number     Number       Type             X           Y           Z
 ---------------------------------------------------------------------
      1          6           0       -1.195782   -0.006082    0.006407
      2          6           0        0.273473   -0.007156    0.028045
      3          7           0        1.443877    0.000181   -0.016541
      4          1           0       -1.506091    0.018226    0.976352
      5          1           0       -1.581599   -0.861991   -0.542408
      6          1           0       -1.485591    0.921920   -0.524869
 ---------------------------------------------------------------------

 SCF Done:  E(RB2PLYPD3) =  -132.529430607     A.U. after   12 cycles
 E2(B2PLYPD3) =    -0.1817418853D+00 E(B2PLYPD3) =    -0.13271117249191D+03

 The electronic state is 1-A.
 Alpha  occ. eigenvalues --  -14.84568 -10.66807 -10.66682  -1.03371  -0.89672
 Alpha  occ. eigenvalues --   -0.59287  -0.55701  -0.53632  -0.44711  -0.38806
 Alpha  occ. eigenvalues --   -0.38550
 Alpha virt. eigenvalues --    0.03729   0.07567   0.08470   0.10173   0.10945
 Alpha virt. eigenvalues --    0.11332   0.15224   0.15628   0.16380   0.20129
 Alpha virt. eigenvalues --    0.20222   0.25088   0.32456   0.34007   0.35363

 Mulliken charges:
               1
     1  C   -0.088380
     2  C   -0.001047
     3  N   -0.215194
     4  H    0.104791
     5  H    0.100723
     6  H    0.099106
 Sum of Mulliken charges =   0.00000

 Dipole moment (field-independent basis, Debye):
    X=             -4.1537    Y=              0.0097    Z=              0.0223  Tot=              4.1538
 Quadrupole moment (field-independent basis, Debye-Ang):
   XX=            -21.1483   YY=            -17.7604   ZZ=            -17.7222
   XY=              0.0491   XZ=              0.1038   YZ=              0.0229

 Normal termination of Gaussian 09 at Wed Aug 26 13:21:42 2020.
