 Gaussian 09, Revision D.01,
 Gaussian 09:  ES64L-G09RevD.01 24-Apr-2013

 --------------------
 #p B2PLYPD3/Def2QZVP
 --------------------

 ------------
 cyanomethane
 ------------
 Symbolic Z-matrix:
 Charge =  0 Multiplicity = 1

                         Standard orientation:
 ---------------------------------------------------------------------
 Center     Atomic      Atomic             Coordinates (Angstroms)
 Number     Number       Type             X           Y           Z
 ---------------------------------------------------------------------
      1          6           0       -1.183150    0.001443   -0.008781
      2          6           0        0.275893    0.002963    0.021819
      3          7           0        1.438873   -0.000062   -0.011063
      4          1           0       -1.532078   -0.151244    0.991150
      5          1           0       -1.530339   -0.826832   -0.614974
      6          1           0       -1.566151    0.952071   -0.376959
 ---------------------------------------------------------------------

 SCF Done:  E(RB2PLYPD3) =  -132.534470610     A.U. after   12 cycles
 E2(B2PLYPD3) =    -0.1811334405D+00 E(B2PLYPD3) =    -0.13271560405006D+03

 The electronic state is 1-A.
 Alpha  occ. eigenvalues --  -14.84414 -10.66931 -10.66490  -1.03740  -0.89447
 Alpha  occ. eigenvalues --   -0.59658  -0.54366  -0.54078  -0.44783  -0.38905
 Alpha  occ. eigenvalues --   -0.38808
 Alpha virt. eigenvalues --    0.03769   0.07750   0.08058   0.10165   0.11276
 Alpha virt. eigenvalues --    0.11364   0.15356   0.15855   0.16610   0.20124
 Alpha virt. eigenvalues --    0.20148   0.25327   0.32671   0.34551   0.34889

 Mulliken charges:
               1
     1  C   -0.082974
     2  C   -0.000622
     3  N   -0.210872
     4  H    0.096213
     5  H    0.099083
     6  H    0.099172
 Sum of Mulliken charges =   0.00000

 Dipole moment (field-independent basis, Debye):
    X=             -4.1436    Y=             -0.0096    Z=              0.0327  Tot=              4.1437
 Quadrupole moment (field-independent basis, Debye-Ang):
   XX=            -21.0335   YY=            -17.6785   ZZ=            -17.8344
   XY=             -0.0050   XZ=              0.0246   YZ=              0.0003

 Normal termination of Gaussian 09 at Thu Aug 27 00:08:51 2020.
