 Gaussian 09, Revision D.01,
 Gaussian 09:  ES64L-G09RevD.01 24-Apr-2013

 --------------------
 #p B2PLYPD3/Def2QZVP
 --------------------

 ------------
 cyanomethane
 ------------
 Symbolic Z-matrix:
 Charge =  0 Multiplicity = 1

                         Standard orientation:
 ---------------------------------------------------------------------
 Center     Atomic      Atomic             Coordinates (Angstroms)
 Number     Number       Type             X           Y           Z
 ---------------------------------------------------------------------
      1          6           0        1.171595   -0.002254   -0.006641
      2          6           0       -0.280738   -0.013873    0.002413
      3          7           0       -1.428900    0.007550   -0.003101
      4          1           0        1.567136    0.926635   -0.390876
      5          1           0        1.573509   -0.798493   -0.559128
      6          1           0        1.516517   -0.084232    0.997075
 ---------------------------------------------------------------------

 SCF Done:  E(RB2PLYPD3) =  -132.534888388     A.U. after   11 cycles
 E2(B2PLYPD3) =    -0.1796463405D+00 E(B2PLYPD3) =    -0.13271453472858D+03

 The electronic state is 1-A.
 Alpha  occ. eigenvalues --  -14.84032 -10.66256 -10.66063  -1.04395  -0.89830
 Alpha  occ. eigenvalues --   -0.60373  -0.54713  -0.53912  -0.44804  -0.39341
 Alpha  occ. eigenvalues --   -0.39186
 Alpha virt. eigenvalues --    0.03879   0.08092   0.08425   0.10195   0.11416
 Alpha virt. eigenvalues --    0.11604   0.15553   0.16197   0.16873   0.20050
 Alpha virt. eigenvalues --    0.20101   0.25462   0.33059   0.34759   0.35365

 Mulliken charges:
               1
     1  C   -0.069970
     2  C   -0.001728
     3  N   -0.203629
     4  H    0.091141
     5  H    0.093303
     6  H    0.090884
 Sum of Mulliken charges =   0.00000

 Dipole moment (field-independent basis, Debye):
    X=              4.1312    Y=             -0.0109    Z=              0.0210  Tot=              4.1313
 Quadrupole moment (field-independent basis, Debye-Ang):
   XX=            -20.8220   YY=            -17.6949   ZZ=            -17.7588
   XY=              0.0449   XZ=             -0.0215   YZ=              0.0263

 Normal termination of Gaussian 09 at Thu Aug 27 00:13:56 2020.
