 Gaussian 09, Revision D.01,
 Gaussian 09:  ES64L-G09RevD.01 24-Apr-2013

 --------------------
 #p B2PLYPD3/Def2QZVP
 --------------------

 ------------
 cyanomethane
 ------------
 Symbolic Z-matrix:
 Charge =  0 Multiplicity = 1

                         Standard orientation:
 ---------------------------------------------------------------------
 Center     Atomic      Atomic             Coordinates (Angstroms)
 Number     Number       Type             X           Y           Z
 ---------------------------------------------------------------------
      1          6           0       -1.177784   -0.000528    0.006203
      2          6           0        0.268079    0.014481    0.009857
      3          7           0        1.431110   -0.010486   -0.008629
      4          1           0       -1.500487    0.922667   -0.452389
      5          1           0       -1.483620   -0.080475    0.998593
      6          1           0       -1.575434   -0.852511   -0.582159
 ---------------------------------------------------------------------

 SCF Done:  E(RB2PLYPD3) =  -132.532407899     A.U. after   12 cycles
 E2(B2PLYPD3) =    -0.1810805199D+00 E(B2PLYPD3) =    -0.13271348841927D+03

 The electronic state is 1-A.
 Alpha  occ. eigenvalues --  -14.84310 -10.66680 -10.66336  -1.03735  -0.89892
 Alpha  occ. eigenvalues --   -0.59534  -0.55467  -0.53769  -0.44718  -0.38825
 Alpha  occ. eigenvalues --   -0.38680
 Alpha virt. eigenvalues --    0.03779   0.07578   0.08380   0.10144   0.11243
 Alpha virt. eigenvalues --    0.11472   0.15440   0.15733   0.16399   0.20142
 Alpha virt. eigenvalues --    0.20184   0.25520   0.32778   0.34318   0.35077

 Mulliken charges:
               1
     1  C   -0.087264
     2  C   -0.001556
     3  N   -0.212154
     4  H    0.100631
     5  H    0.103278
     6  H    0.097065
 Sum of Mulliken charges =   0.00000

 Dipole moment (field-independent basis, Debye):
    X=             -4.1298    Y=              0.0174    Z=              0.0167  Tot=              4.1299
 Quadrupole moment (field-independent basis, Debye-Ang):
   XX=            -21.1454   YY=            -17.7159   ZZ=            -17.6895
   XY=              0.1035   XZ=              0.0860   YZ=             -0.0347

 Normal termination of Gaussian 09 at Wed Aug 26 12:03:12 2020.
