 Gaussian 09, Revision D.01,
 Gaussian 09:  ES64L-G09RevD.01 24-Apr-2013

 --------------------
 #p B2PLYPD3/Def2QZVP
 --------------------

 ------------
 cyanomethane
 ------------
 Symbolic Z-matrix:
 Charge =  0 Multiplicity = 1

                         Standard orientation:
 ---------------------------------------------------------------------
 Center     Atomic      Atomic             Coordinates (Angstroms)
 Number     Number       Type             X           Y           Z
 ---------------------------------------------------------------------
      1          6           0        1.182308   -0.005060    0.018255
      2          6           0       -0.284945   -0.050467   -0.017467
      3          7           0       -1.419356    0.014336    0.011656
      4          1           0        1.554174    0.231183    0.942574
      5          1           0        1.356463    0.949682   -0.631943
      6          1           0        1.640675   -0.948055   -0.396953
 ---------------------------------------------------------------------

 SCF Done:  E(RB2PLYPD3) =  -132.524728472     A.U. after   12 cycles
 E2(B2PLYPD3) =    -0.1793742723D+00 E(B2PLYPD3) =    -0.13270410274393D+03

 The electronic state is 1-A.
 Alpha  occ. eigenvalues --  -14.83534 -10.67715 -10.65682  -1.04756  -0.88858
 Alpha  occ. eigenvalues --   -0.59571  -0.54444  -0.52358  -0.44574  -0.39640
 Alpha  occ. eigenvalues --   -0.39006
 Alpha virt. eigenvalues --    0.03558   0.07928   0.08256   0.10197   0.11428
 Alpha virt. eigenvalues --    0.12122   0.15061   0.15647   0.17006   0.19907
 Alpha virt. eigenvalues --    0.20155   0.25251   0.31956   0.32881   0.35290

 Mulliken charges:
               1
     1  C   -0.108332
     2  C   -0.001244
     3  N   -0.198123
     4  H    0.104488
     5  H    0.098732
     6  H    0.104478
 Sum of Mulliken charges =   0.00000

 Dipole moment (field-independent basis, Debye):
    X=              4.0715    Y=              0.0135    Z=              0.0192  Tot=              4.0715
 Quadrupole moment (field-independent basis, Debye-Ang):
   XX=            -21.2608   YY=            -17.4399   ZZ=            -17.8884
   XY=             -0.0582   XZ=              0.2323   YZ=              0.0788

 Normal termination of Gaussian 09 at Wed Aug 26 20:18:49 2020.
