 Gaussian 09, Revision D.01,
 Gaussian 09:  ES64L-G09RevD.01 24-Apr-2013

 --------------------
 #p B2PLYPD3/Def2QZVP
 --------------------

 ------------
 cyanomethane
 ------------
 Symbolic Z-matrix:
 Charge =  0 Multiplicity = 1

                         Standard orientation:
 ---------------------------------------------------------------------
 Center     Atomic      Atomic             Coordinates (Angstroms)
 Number     Number       Type             X           Y           Z
 ---------------------------------------------------------------------
      1          6           0       -1.165572   -0.008994   -0.006126
      2          6           0        0.288139    0.019753   -0.019027
      3          7           0        1.444969   -0.017303    0.011947
      4          1           0       -1.504572    0.973076   -0.267879
      5          1           0       -1.655910   -0.195391    0.961976
      6          1           0       -1.689704   -0.721118   -0.626803
 ---------------------------------------------------------------------

 SCF Done:  E(RB2PLYPD3) =  -132.529320127     A.U. after   12 cycles
 E2(B2PLYPD3) =    -0.1810838149D+00 E(B2PLYPD3) =    -0.13271040394151D+03

 The electronic state is 1-A.
 Alpha  occ. eigenvalues --  -14.84602 -10.66870 -10.66731  -1.04204  -0.89269
 Alpha  occ. eigenvalues --   -0.61671  -0.53897  -0.52105  -0.45119  -0.39217
 Alpha  occ. eigenvalues --   -0.39003
 Alpha virt. eigenvalues --    0.03690   0.07097   0.07916   0.10046   0.11390
 Alpha virt. eigenvalues --    0.11746   0.15460   0.16414   0.17785   0.19990
 Alpha virt. eigenvalues --    0.20403   0.25495   0.32729   0.34452   0.35131

 Mulliken charges:
               1
     1  C   -0.058001
     2  C    0.009630
     3  N   -0.206305
     4  H    0.086981
     5  H    0.080545
     6  H    0.087149
 Sum of Mulliken charges =   0.00000

 Dipole moment (field-independent basis, Debye):
    X=             -4.1621    Y=              0.0386    Z=             -0.0004  Tot=              4.1623
 Quadrupole moment (field-independent basis, Debye-Ang):
   XX=            -20.4299   YY=            -17.8198   ZZ=            -18.0763
   XY=              0.1960   XZ=             -0.1350   YZ=              0.0101

 Normal termination of Gaussian 09 at Wed Aug 26 20:35:47 2020.
