 Gaussian 09, Revision D.01,
 Gaussian 09:  ES64L-G09RevD.01 24-Apr-2013

 --------------------
 #p B2PLYPD3/Def2QZVP
 --------------------

 ------------
 cyanomethane
 ------------
 Symbolic Z-matrix:
 Charge =  0 Multiplicity = 1

                         Standard orientation:
 ---------------------------------------------------------------------
 Center     Atomic      Atomic             Coordinates (Angstroms)
 Number     Number       Type             X           Y           Z
 ---------------------------------------------------------------------
      1          6           0        1.185583    0.010629   -0.012684
      2          6           0       -0.289744    0.014251   -0.034264
      3          7           0       -1.435069   -0.006907    0.023461
      4          1           0        1.604086   -0.325903    0.973688
      5          1           0        1.567616    0.949517   -0.178116
      6          1           0        1.498747   -0.724549   -0.678112
 ---------------------------------------------------------------------

 SCF Done:  E(RB2PLYPD3) =  -132.529640845     A.U. after   12 cycles
 E2(B2PLYPD3) =    -0.1796251773D+00 E(B2PLYPD3) =    -0.13270926602262D+03

 The electronic state is 1-A.
 Alpha  occ. eigenvalues --  -14.84040 -10.66450 -10.66123  -1.04417  -0.89552
 Alpha  occ. eigenvalues --   -0.59902  -0.56187  -0.52382  -0.44783  -0.39614
 Alpha  occ. eigenvalues --   -0.39149
 Alpha virt. eigenvalues --    0.03726   0.07860   0.08963   0.10224   0.11066
 Alpha virt. eigenvalues --    0.11708   0.15394   0.16231   0.16868   0.19942
 Alpha virt. eigenvalues --    0.20140   0.25064   0.32731   0.34058   0.36061

 Mulliken charges:
               1
     1  C   -0.073174
     2  C   -0.002754
     3  N   -0.202016
     4  H    0.083456
     5  H    0.098052
     6  H    0.096435
 Sum of Mulliken charges =   0.00000

 Dipole moment (field-independent basis, Debye):
    X=              4.1309    Y=             -0.0080    Z=             -0.0276  Tot=              4.1310
 Quadrupole moment (field-independent basis, Debye-Ang):
   XX=            -20.8312   YY=            -17.5774   ZZ=            -17.9055
   XY=             -0.0552   XZ=              0.2327   YZ=              0.0551

 Normal termination of Gaussian 09 at Wed Aug 26 15:27:02 2020.
