 Gaussian 09, Revision D.01,
 Gaussian 09:  ES64L-G09RevD.01 24-Apr-2013

 --------------------
 #p B2PLYPD3/Def2QZVP
 --------------------

 ------------
 cyanomethane
 ------------
 Symbolic Z-matrix:
 Charge =  0 Multiplicity = 1

                         Standard orientation:
 ---------------------------------------------------------------------
 Center     Atomic      Atomic             Coordinates (Angstroms)
 Number     Number       Type             X           Y           Z
 ---------------------------------------------------------------------
      1          6           0       -1.180881    0.020172   -0.011082
      2          6           0        0.279300    0.015959    0.024619
      3          7           0        1.424669   -0.011315   -0.015582
      4          1           0       -1.569572   -0.694699   -0.750632
      5          1           0       -1.517323    0.947902   -0.163963
      6          1           0       -1.476302   -0.390783    0.942450
 ---------------------------------------------------------------------

 SCF Done:  E(RB2PLYPD3) =  -132.529176198     A.U. after   12 cycles
 E2(B2PLYPD3) =    -0.1794756089D+00 E(B2PLYPD3) =    -0.13270865180693D+03

 The electronic state is 1-A.
 Alpha  occ. eigenvalues --  -14.83856 -10.66203 -10.65889  -1.04390  -0.90012
 Alpha  occ. eigenvalues --   -0.59689  -0.56370  -0.53186  -0.44661  -0.39490
 Alpha  occ. eigenvalues --   -0.39022
 Alpha virt. eigenvalues --    0.03832   0.08045   0.09015   0.10185   0.11168
 Alpha virt. eigenvalues --    0.11737   0.15466   0.15671   0.16882   0.20003
 Alpha virt. eigenvalues --    0.20154   0.25325   0.32984   0.34031   0.35826

 Mulliken charges:
               1
     1  C   -0.082611
     2  C   -0.004261
     3  N   -0.203696
     4  H    0.093049
     5  H    0.103546
     6  H    0.093972
 Sum of Mulliken charges =   0.00000

 Dipole moment (field-independent basis, Debye):
    X=             -4.1128    Y=             -0.0056    Z=              0.0407  Tot=              4.1130
 Quadrupole moment (field-independent basis, Debye-Ang):
   XX=            -21.0345   YY=            -17.5288   ZZ=            -17.7783
   XY=              0.1313   XZ=              0.1152   YZ=             -0.0488

 Normal termination of Gaussian 09 at Wed Aug 26 14:24:48 2020.
