 Gaussian 09, Revision D.01,
 Gaussian 09:  ES64L-G09RevD.01 24-Apr-2013

 --------------------
 #p B2PLYPD3/Def2QZVP
 --------------------

 ------------
 cyanomethane
 ------------
 Symbolic Z-matrix:
 Charge =  0 Multiplicity = 1

                         Standard orientation:
 ---------------------------------------------------------------------
 Center     Atomic      Atomic             Coordinates (Angstroms)
 Number     Number       Type             X           Y           Z
 ---------------------------------------------------------------------
      1          6           0       -1.184989   -0.005527    0.008124
      2          6           0        0.274716    0.001994    0.019008
      3          7           0        1.431821    0.000779   -0.018141
      4          1           0       -1.420868   -0.353869    0.956437
      5          1           0       -1.585661   -0.688634   -0.794921
      6          1           0       -1.554576    1.058251   -0.197322
 ---------------------------------------------------------------------

 SCF Done:  E(RB2PLYPD3) =  -132.528537614     A.U. after   12 cycles
 E2(B2PLYPD3) =    -0.1809959515D+00 E(B2PLYPD3) =    -0.13270953356592D+03

 The electronic state is 1-A.
 Alpha  occ. eigenvalues --  -14.84152 -10.67601 -10.66220  -1.03917  -0.89195
 Alpha  occ. eigenvalues --   -0.58674  -0.55290  -0.52812  -0.44652  -0.38953
 Alpha  occ. eigenvalues --   -0.38775
 Alpha virt. eigenvalues --    0.03580   0.07175   0.08571   0.10172   0.11255
 Alpha virt. eigenvalues --    0.11575   0.15218   0.15502   0.16499   0.20092
 Alpha virt. eigenvalues --    0.20159   0.25257   0.32273   0.33668   0.34837

 Mulliken charges:
               1
     1  C   -0.103070
     2  C   -0.001971
     3  N   -0.208671
     4  H    0.110586
     5  H    0.101090
     6  H    0.102036
 Sum of Mulliken charges =   0.00000

 Dipole moment (field-independent basis, Debye):
    X=             -4.1057    Y=             -0.0133    Z=              0.0334  Tot=              4.1059
 Quadrupole moment (field-independent basis, Debye-Ang):
   XX=            -21.3033   YY=            -17.6814   ZZ=            -17.7208
   XY=              0.0024   XZ=              0.2150   YZ=             -0.0533

 Normal termination of Gaussian 09 at Wed Aug 26 15:45:12 2020.
