 Gaussian 09, Revision D.01,
 Gaussian 09:  ES64L-G09RevD.01 24-Apr-2013

 --------------------
 #p B2PLYPD3/Def2QZVP
 --------------------

 ------------
 cyanomethane
 ------------
 Symbolic Z-matrix:
 Charge =  0 Multiplicity = 1

                         Standard orientation:
 ---------------------------------------------------------------------
 Center     Atomic      Atomic             Coordinates (Angstroms)
 Number     Number       Type             X           Y           Z
 ---------------------------------------------------------------------
      1          6           0       -1.170650    0.010482   -0.005634
      2          6           0        0.274235   -0.000920    0.011508
      3          7           0        1.433003   -0.002721   -0.001957
      4          1           0       -1.514865    0.996270   -0.190276
      5          1           0       -1.604756   -0.357733    0.953067
      6          1           0       -1.532908   -0.676865   -0.784338
 ---------------------------------------------------------------------

 SCF Done:  E(RB2PLYPD3) =  -132.534075030     A.U. after   11 cycles
 E2(B2PLYPD3) =    -0.1808790805D+00 E(B2PLYPD3) =    -0.13271495411061D+03

 The electronic state is 1-A.
 Alpha  occ. eigenvalues --  -14.84306 -10.67075 -10.66338  -1.03980  -0.89419
 Alpha  occ. eigenvalues --   -0.59992  -0.54735  -0.53094  -0.44827  -0.38997
 Alpha  occ. eigenvalues --   -0.38794
 Alpha virt. eigenvalues --    0.03745   0.07454   0.07999   0.10157   0.11359
 Alpha virt. eigenvalues --    0.11614   0.15464   0.16250   0.16455   0.20083
 Alpha virt. eigenvalues --    0.20152   0.25567   0.32701   0.34176   0.35022

 Mulliken charges:
               1
     1  C   -0.082227
     2  C    0.000043
     3  N   -0.208362
     4  H    0.101169
     5  H    0.093043
     6  H    0.096336
 Sum of Mulliken charges =   0.00000

 Dipole moment (field-independent basis, Debye):
    X=             -4.1310    Y=              0.0003    Z=             -0.0030  Tot=              4.1310
 Quadrupole moment (field-independent basis, Debye-Ang):
   XX=            -20.9859   YY=            -17.6976   ZZ=            -17.8340
   XY=              0.0640   XZ=             -0.0382   YZ=             -0.0044

 Normal termination of Gaussian 09 at Wed Aug 26 23:02:06 2020.
