 Gaussian 09, Revision D.01,
 Gaussian 09:  ES64L-G09RevD.01 24-Apr-2013

 --------------------
 #p B2PLYPD3/Def2QZVP
 --------------------

 ------------
 cyanomethane
 ------------
 Symbolic Z-matrix:
 Charge =  0 Multiplicity = 1

                         Standard orientation:
 ---------------------------------------------------------------------
 Center     Atomic      Atomic             Coordinates (Angstroms)
 Number     Number       Type             X           Y           Z
 ---------------------------------------------------------------------
      1          6           0        1.186665   -0.004693   -0.018782
      2          6           0       -0.283478    0.004656   -0.024219
      3          7           0       -1.437084   -0.003953    0.018535
      4          1           0        1.604216    0.000097    0.982700
      5          1           0        1.494745    0.886230   -0.420090
      6          1           0        1.541501   -0.858435   -0.434350
 ---------------------------------------------------------------------

 SCF Done:  E(RB2PLYPD3) =  -132.526909189     A.U. after   11 cycles
 E2(B2PLYPD3) =    -0.1800113644D+00 E(B2PLYPD3) =    -0.13270692055356D+03

 The electronic state is 1-A.
 Alpha  occ. eigenvalues --  -14.84210 -10.66291 -10.65746  -1.04112  -0.90229
 Alpha  occ. eigenvalues --   -0.60279  -0.56954  -0.52801  -0.44784  -0.39433
 Alpha  occ. eigenvalues --   -0.38981
 Alpha virt. eigenvalues --    0.03883   0.07999   0.08962   0.10216   0.10943
 Alpha virt. eigenvalues --    0.11653   0.15382   0.16318   0.16732   0.19977
 Alpha virt. eigenvalues --    0.20199   0.25100   0.32843   0.34431   0.36325

 Mulliken charges:
               1
     1  C   -0.063741
     2  C   -0.001171
     3  N   -0.206946
     4  H    0.079664
     5  H    0.095985
     6  H    0.096209
 Sum of Mulliken charges =   0.00000

 Dipole moment (field-independent basis, Debye):
    X=              4.1539    Y=              0.0111    Z=              0.0089  Tot=              4.1540
 Quadrupole moment (field-independent basis, Debye-Ang):
   XX=            -20.7854   YY=            -17.4967   ZZ=            -17.9667
   XY=             -0.0449   XZ=              0.2625   YZ=              0.0104

 Normal termination of Gaussian 09 at Wed Aug 26 15:36:37 2020.
