 Gaussian 09, Revision D.01,
 Gaussian 09:  ES64L-G09RevD.01 24-Apr-2013

 --------------------
 #p B2PLYPD3/Def2QZVP
 --------------------

 ------------
 cyanomethane
 ------------
 Symbolic Z-matrix:
 Charge =  0 Multiplicity = 1

                         Standard orientation:
 ---------------------------------------------------------------------
 Center     Atomic      Atomic             Coordinates (Angstroms)
 Number     Number       Type             X           Y           Z
 ---------------------------------------------------------------------
      1          6           0       -1.203857    0.007704    0.022980
      2          6           0        0.297394    0.025170   -0.027023
      3          7           0        1.433502   -0.012925    0.012105
      4          1           0       -1.530239   -0.170803    1.052457
      5          1           0       -1.521124   -0.948659   -0.668385
      6          1           0       -1.544372    1.012690   -0.444552
 ---------------------------------------------------------------------

 SCF Done:  E(RB2PLYPD3) =  -132.520113902     A.U. after   12 cycles
 E2(B2PLYPD3) =    -0.1801451170D+00 E(B2PLYPD3) =    -0.13270025901943D+03

 The electronic state is 1-A.
 Alpha  occ. eigenvalues --  -14.83596 -10.69622 -10.65779  -1.04616  -0.87121
 Alpha  occ. eigenvalues --   -0.57490  -0.53617  -0.51455  -0.44486  -0.39559
 Alpha  occ. eigenvalues --   -0.39146
 Alpha virt. eigenvalues --    0.03168   0.07326   0.08043   0.10188   0.11395
 Alpha virt. eigenvalues --    0.11870   0.14778   0.15583   0.16299   0.19924
 Alpha virt. eigenvalues --    0.20055   0.24554   0.30966   0.32388   0.34301

 Mulliken charges:
               1
     1  C   -0.131111
     2  C   -0.002637
     3  N   -0.195508
     4  H    0.115587
     5  H    0.102054
     6  H    0.111614
 Sum of Mulliken charges =   0.00000

 Dipole moment (field-independent basis, Debye):
    X=             -4.0590    Y=              0.0173    Z=              0.0068  Tot=              4.0590
 Quadrupole moment (field-independent basis, Debye-Ang):
   XX=            -21.6017   YY=            -17.6119   ZZ=            -17.7440
   XY=              0.0691   XZ=             -0.1285   YZ=             -0.0895

 Normal termination of Gaussian 09 at Wed Aug 26 22:28:49 2020.
