 Gaussian 09, Revision D.01,
 Gaussian 09:  ES64L-G09RevD.01 24-Apr-2013

 --------------------
 #p B2PLYPD3/Def2QZVP
 --------------------

 ------------
 cyanomethane
 ------------
 Symbolic Z-matrix:
 Charge =  0 Multiplicity = 1

                         Standard orientation:
 ---------------------------------------------------------------------
 Center     Atomic      Atomic             Coordinates (Angstroms)
 Number     Number       Type             X           Y           Z
 ---------------------------------------------------------------------
      1          6           0        1.183791   -0.002487   -0.008025
      2          6           0       -0.282925   -0.018916    0.001229
      3          7           0       -1.437096    0.011703   -0.002191
      4          1           0        1.581789    0.972821   -0.295424
      5          1           0        1.558489   -0.742269   -0.631110
      6          1           0        1.514198   -0.184054    0.982648
 ---------------------------------------------------------------------

 SCF Done:  E(RB2PLYPD3) =  -132.533507754     A.U. after   12 cycles
 E2(B2PLYPD3) =    -0.1801653653D+00 E(B2PLYPD3) =    -0.13271367311931D+03

 The electronic state is 1-A.
 Alpha  occ. eigenvalues --  -14.84216 -10.66401 -10.66295  -1.04107  -0.89688
 Alpha  occ. eigenvalues --   -0.59997  -0.55047  -0.53748  -0.44793  -0.39263
 Alpha  occ. eigenvalues --   -0.39077
 Alpha virt. eigenvalues --    0.03839   0.07978   0.08542   0.10209   0.11226
 Alpha virt. eigenvalues --    0.11482   0.15417   0.16024   0.16833   0.20058
 Alpha virt. eigenvalues --    0.20131   0.25187   0.32799   0.34657   0.35446

 Mulliken charges:
               1
     1  C   -0.073014
     2  C   -0.001768
     3  N   -0.206542
     4  H    0.092615
     5  H    0.096164
     6  H    0.092546
 Sum of Mulliken charges =   0.00000

 Dipole moment (field-independent basis, Debye):
    X=              4.1444    Y=             -0.0235    Z=              0.0239  Tot=              4.1446
 Quadrupole moment (field-independent basis, Debye-Ang):
   XX=            -20.8712   YY=            -17.6977   ZZ=            -17.7897
   XY=              0.0760   XZ=             -0.0031   YZ=              0.0410

 Normal termination of Gaussian 09 at Wed Aug 26 23:54:56 2020.
