 Gaussian 09, Revision D.01,
 Gaussian 09:  ES64L-G09RevD.01 24-Apr-2013

 --------------------
 #p B2PLYPD3/Def2QZVP
 --------------------

 ------------
 cyanomethane
 ------------
 Symbolic Z-matrix:
 Charge =  0 Multiplicity = 1

                         Standard orientation:
 ---------------------------------------------------------------------
 Center     Atomic      Atomic             Coordinates (Angstroms)
 Number     Number       Type             X           Y           Z
 ---------------------------------------------------------------------
      1          6           0        1.189444   -0.003425   -0.006893
      2          6           0       -0.275226    0.056064   -0.000011
      3          7           0       -1.441602   -0.020295    0.002260
      4          1           0        1.540907   -0.198896    0.930684
      5          1           0        1.639340    0.855884   -0.335938
      6          1           0        1.425663   -0.830756   -0.569140
 ---------------------------------------------------------------------

 SCF Done:  E(RB2PLYPD3) =  -132.524856907     A.U. after   12 cycles
 E2(B2PLYPD3) =    -0.1810393498D+00 E(B2PLYPD3) =    -0.13270589625702D+03

 The electronic state is 1-A.
 Alpha  occ. eigenvalues --  -14.84587 -10.66700 -10.65227  -1.03566  -0.90738
 Alpha  occ. eigenvalues --   -0.60605  -0.56087  -0.54649  -0.44820  -0.38993
 Alpha  occ. eigenvalues --   -0.38770
 Alpha virt. eigenvalues --    0.03954   0.08272   0.08394   0.10281   0.10959
 Alpha virt. eigenvalues --    0.11405   0.15347   0.16084   0.16673   0.20060
 Alpha virt. eigenvalues --    0.20242   0.25299   0.32780   0.35215   0.36011

 Mulliken charges:
               1
     1  C   -0.059953
     2  C    0.002836
     3  N   -0.214685
     4  H    0.086205
     5  H    0.090880
     6  H    0.094718
 Sum of Mulliken charges =   0.00000

 Dipole moment (field-independent basis, Debye):
    X=              4.1758    Y=             -0.0057    Z=              0.0235  Tot=              4.1758
 Quadrupole moment (field-independent basis, Debye-Ang):
   XX=            -20.7578   YY=            -17.6092   ZZ=            -17.8824
   XY=             -0.0251   XZ=              0.1070   YZ=              0.0018

 Normal termination of Gaussian 09 at Wed Aug 26 21:20:01 2020.
