 Gaussian 09, Revision D.01,
 Gaussian 09:  ES64L-G09RevD.01 24-Apr-2013

 --------------------
 #p B2PLYPD3/Def2QZVP
 --------------------

 ------------
 cyanomethane
 ------------
 Symbolic Z-matrix:
 Charge =  0 Multiplicity = 1

                         Standard orientation:
 ---------------------------------------------------------------------
 Center     Atomic      Atomic             Coordinates (Angstroms)
 Number     Number       Type             X           Y           Z
 ---------------------------------------------------------------------
      1          6           0       -1.174496    0.002818   -0.037082
      2          6           0        0.271860   -0.023305   -0.030201
      3          7           0        1.421128    0.016667    0.022977
      4          1           0       -1.560395   -0.039298    1.025415
      5          1           0       -1.428725   -0.866264   -0.420436
      6          1           0       -1.542958    0.911821   -0.362120
 ---------------------------------------------------------------------

 SCF Done:  E(RB2PLYPD3) =  -132.518743924     A.U. after   11 cycles
 E2(B2PLYPD3) =    -0.1800070902D+00 E(B2PLYPD3) =    -0.13269875101385D+03

 The electronic state is 1-A.
 Alpha  occ. eigenvalues --  -14.83957 -10.65947 -10.65774  -1.04241  -0.90690
 Alpha  occ. eigenvalues --   -0.60014  -0.58356  -0.52003  -0.44678  -0.39433
 Alpha  occ. eigenvalues --   -0.38629
 Alpha virt. eigenvalues --    0.03733   0.07649   0.09268   0.10136   0.10922
 Alpha virt. eigenvalues --    0.11973   0.15308   0.15989   0.16948   0.19938
 Alpha virt. eigenvalues --    0.20258   0.25520   0.32517   0.33711   0.36819

 Mulliken charges:
               1
     1  C   -0.076800
     2  C   -0.001860
     3  N   -0.207184
     4  H    0.078261
     5  H    0.105066
     6  H    0.102517
 Sum of Mulliken charges =   0.00000

 Dipole moment (field-independent basis, Debye):
    X=             -4.1182    Y=             -0.0235    Z=              0.0220  Tot=              4.1183
 Quadrupole moment (field-independent basis, Debye-Ang):
   XX=            -21.0115   YY=            -17.3321   ZZ=            -17.9841
   XY=             -0.1709   XZ=             -0.3318   YZ=              0.0396

 Normal termination of Gaussian 09 at Wed Aug 26 22:29:18 2020.
