 Gaussian 09, Revision D.01,
 Gaussian 09:  ES64L-G09RevD.01 24-Apr-2013

 --------------------
 #p B2PLYPD3/Def2QZVP
 --------------------

 ------------
 cyanomethane
 ------------
 Symbolic Z-matrix:
 Charge =  0 Multiplicity = 1

                         Standard orientation:
 ---------------------------------------------------------------------
 Center     Atomic      Atomic             Coordinates (Angstroms)
 Number     Number       Type             X           Y           Z
 ---------------------------------------------------------------------
      1          6           0       -1.173552    0.014360   -0.019942
      2          6           0        0.290004    0.010187    0.042510
      3          7           0        1.435036   -0.012253   -0.029122
      4          1           0       -1.717666   -0.631424   -0.837246
      5          1           0       -1.523373    1.054933   -0.060233
      6          1           0       -1.502924   -0.485020    0.965924
 ---------------------------------------------------------------------

 SCF Done:  E(RB2PLYPD3) =  -132.524149693     A.U. after   12 cycles
 E2(B2PLYPD3) =    -0.1809146744D+00 E(B2PLYPD3) =    -0.13270506436709D+03

 The electronic state is 1-A.
 Alpha  occ. eigenvalues --  -14.84139 -10.68710 -10.66249  -1.04484  -0.87965
 Alpha  occ. eigenvalues --   -0.59250  -0.53791  -0.51161  -0.44877  -0.39363
 Alpha  occ. eigenvalues --   -0.38873
 Alpha virt. eigenvalues --    0.03287   0.06598   0.07986   0.10081   0.11444
 Alpha virt. eigenvalues --    0.11879   0.15346   0.15421   0.17693   0.19991
 Alpha virt. eigenvalues --    0.20269   0.25446   0.32187   0.32699   0.34549

 Mulliken charges:
               1
     1  C   -0.102325
     2  C    0.004467
     3  N   -0.199951
     4  H    0.098043
     5  H    0.105820
     6  H    0.093944
 Sum of Mulliken charges =   0.00000

 Dipole moment (field-independent basis, Debye):
    X=             -4.0919    Y=              0.0087    Z=              0.0687  Tot=              4.0925
 Quadrupole moment (field-independent basis, Debye-Ang):
   XX=            -21.0143   YY=            -17.6876   ZZ=            -18.0003
   XY=              0.1918   XZ=              0.2546   YZ=             -0.0179

 Normal termination of Gaussian 09 at Wed Aug 26 19:56:30 2020.
