 Gaussian 09, Revision D.01,
 Gaussian 09:  ES64L-G09RevD.01 24-Apr-2013

 --------------------
 #p B2PLYPD3/Def2QZVP
 --------------------

 ------------
 cyanomethane
 ------------
 Symbolic Z-matrix:
 Charge =  0 Multiplicity = 1

                         Standard orientation:
 ---------------------------------------------------------------------
 Center     Atomic      Atomic             Coordinates (Angstroms)
 Number     Number       Type             X           Y           Z
 ---------------------------------------------------------------------
      1          6           0       -1.164016   -0.016455   -0.003062
      2          6           0        0.286063   -0.000782   -0.039616
      3          7           0        1.415965    0.008355    0.015683
      4          1           0       -1.621677    1.052251    0.139332
      5          1           0       -1.437752   -0.586799    0.872544
      6          1           0       -1.584612   -0.420512   -0.865587
 ---------------------------------------------------------------------

 SCF Done:  E(RB2PLYPD3) =  -132.530311870     A.U. after   12 cycles
 E2(B2PLYPD3) =    -0.1786787648D+00 E(B2PLYPD3) =    -0.13270899063505D+03

 The electronic state is 1-A.
 Alpha  occ. eigenvalues --  -14.83517 -10.67153 -10.65522  -1.05085  -0.89180
 Alpha  occ. eigenvalues --   -0.59805  -0.54951  -0.52321  -0.44716  -0.39748
 Alpha  occ. eigenvalues --   -0.39359
 Alpha virt. eigenvalues --    0.03622   0.07571   0.08748   0.10247   0.11598
 Alpha virt. eigenvalues --    0.12057   0.15469   0.16263   0.16833   0.19916
 Alpha virt. eigenvalues --    0.20057   0.25559   0.32397   0.34114   0.35198

 Mulliken charges:
               1
     1  C   -0.089698
     2  C   -0.004172
     3  N   -0.193490
     4  H    0.088323
     5  H    0.100013
     6  H    0.099024
 Sum of Mulliken charges =   0.00000

 Dipole moment (field-independent basis, Debye):
    X=             -4.0737    Y=             -0.0404    Z=             -0.0174  Tot=              4.0740
 Quadrupole moment (field-independent basis, Debye-Ang):
   XX=            -20.9742   YY=            -17.7257   ZZ=            -17.6481
   XY=             -0.0997   XZ=             -0.0146   YZ=             -0.0009

 Normal termination of Gaussian 09 at Wed Aug 26 18:59:45 2020.
