 Gaussian 09, Revision D.01,
 Gaussian 09:  ES64L-G09RevD.01 24-Apr-2013

 --------------------
 #p B2PLYPD3/Def2QZVP
 --------------------

 ------------
 cyanomethane
 ------------
 Symbolic Z-matrix:
 Charge =  0 Multiplicity = 1

                         Standard orientation:
 ---------------------------------------------------------------------
 Center     Atomic      Atomic             Coordinates (Angstroms)
 Number     Number       Type             X           Y           Z
 ---------------------------------------------------------------------
      1          6           0       -1.178244    0.018755    0.012985
      2          6           0        0.263595    0.038214   -0.028244
      3          7           0        1.420096   -0.018709    0.007668
      4          1           0       -1.515077   -0.742463   -0.609814
      5          1           0       -1.546859    0.816341   -0.238250
      6          1           0       -1.390845   -0.284727    0.885943
 ---------------------------------------------------------------------

 SCF Done:  E(RB2PLYPD3) =  -132.491060064     A.U. after   12 cycles
 E2(B2PLYPD3) =    -0.1796447948D+00 E(B2PLYPD3) =    -0.13267070485879D+03

 The electronic state is 1-A.
 Alpha  occ. eigenvalues --  -14.84120 -10.66110 -10.63136  -1.04031  -0.92811
 Alpha  occ. eigenvalues --   -0.61327  -0.59240  -0.55141  -0.44688  -0.39302
 Alpha  occ. eigenvalues --   -0.38833
 Alpha virt. eigenvalues --    0.04096   0.08826   0.09529   0.10347   0.10868
 Alpha virt. eigenvalues --    0.11589   0.15698   0.15978   0.16534   0.20049
 Alpha virt. eigenvalues --    0.20284   0.25636   0.33256   0.35299   0.36980

 Mulliken charges:
               1
     1  C   -0.074683
     2  C    0.003147
     3  N   -0.212806
     4  H    0.080476
     5  H    0.104812
     6  H    0.099053
 Sum of Mulliken charges =   0.00000

 Dipole moment (field-independent basis, Debye):
    X=             -4.1496    Y=             -0.0162    Z=              0.0030  Tot=              4.1496
 Quadrupole moment (field-independent basis, Debye-Ang):
   XX=            -20.7384   YY=            -17.4755   ZZ=            -17.6384
   XY=              0.1373   XZ=              0.0339   YZ=             -0.0967

 Normal termination of Gaussian 09 at Wed Aug 26 21:31:27 2020.
