 Gaussian 09, Revision D.01,
 Gaussian 09:  ES64L-G09RevD.01 24-Apr-2013

 --------------------
 #p B2PLYPD3/Def2QZVP
 --------------------

 ------------
 cyanomethane
 ------------
 Symbolic Z-matrix:
 Charge =  0 Multiplicity = 1

                         Standard orientation:
 ---------------------------------------------------------------------
 Center     Atomic      Atomic             Coordinates (Angstroms)
 Number     Number       Type             X           Y           Z
 ---------------------------------------------------------------------
      1          6           0        1.179597    0.002215    0.012923
      2          6           0       -0.286289    0.010335   -0.028595
      3          7           0       -1.436273   -0.005859    0.021701
      4          1           0        1.665119   -0.478272    0.881806
      5          1           0        1.555935    1.031602   -0.079010
      6          1           0        1.473008   -0.587614   -0.860670
 ---------------------------------------------------------------------

 SCF Done:  E(RB2PLYPD3) =  -132.532569807     A.U. after   12 cycles
 E2(B2PLYPD3) =    -0.1804776722D+00 E(B2PLYPD3) =    -0.13271304747950D+03

 The electronic state is 1-A.
 Alpha  occ. eigenvalues --  -14.84170 -10.67508 -10.66284  -1.04278  -0.88820
 Alpha  occ. eigenvalues --   -0.59773  -0.53994  -0.52803  -0.44825  -0.39246
 Alpha  occ. eigenvalues --   -0.39060
 Alpha virt. eigenvalues --    0.03653   0.07375   0.08259   0.10125   0.11410
 Alpha virt. eigenvalues --    0.11624   0.15365   0.15619   0.17392   0.20043
 Alpha virt. eigenvalues --    0.20179   0.25301   0.32614   0.34099   0.34752

 Mulliken charges:
               1
     1  C   -0.088281
     2  C    0.001251
     3  N   -0.203739
     4  H    0.096230
     5  H    0.098229
     6  H    0.096310
 Sum of Mulliken charges =   0.00000

 Dipole moment (field-independent basis, Debye):
    X=              4.1218    Y=             -0.0089    Z=             -0.0482  Tot=              4.1221
 Quadrupole moment (field-independent basis, Debye-Ang):
   XX=            -20.9403   YY=            -17.7023   ZZ=            -17.8861
   XY=             -0.0768   XZ=              0.2202   YZ=              0.0083

 Normal termination of Gaussian 09 at Wed Aug 26 11:08:05 2020.
