 Gaussian 09, Revision D.01,
 Gaussian 09:  ES64L-G09RevD.01 24-Apr-2013

 --------------------
 #p B2PLYPD3/Def2QZVP
 --------------------

 ------------
 cyanomethane
 ------------
 Symbolic Z-matrix:
 Charge =  0 Multiplicity = 1

                         Standard orientation:
 ---------------------------------------------------------------------
 Center     Atomic      Atomic             Coordinates (Angstroms)
 Number     Number       Type             X           Y           Z
 ---------------------------------------------------------------------
      1          6           0        1.179839    0.002650   -0.002893
      2          6           0       -0.275607    0.009859    0.035995
      3          7           0       -1.428554   -0.000178   -0.022462
      4          1           0        1.531956   -0.584088   -0.873984
      5          1           0        1.445771   -0.501730    0.895264
      6          1           0        1.596763    1.012013   -0.062661
 ---------------------------------------------------------------------

 SCF Done:  E(RB2PLYPD3) =  -132.533215934     A.U. after   12 cycles
 E2(B2PLYPD3) =    -0.1805099233D+00 E(B2PLYPD3) =    -0.13271372585758D+03

 The electronic state is 1-A.
 Alpha  occ. eigenvalues --  -14.84089 -10.67094 -10.66134  -1.04078  -0.89407
 Alpha  occ. eigenvalues --   -0.59243  -0.54841  -0.53555  -0.44692  -0.39052
 Alpha  occ. eigenvalues --   -0.38908
 Alpha virt. eigenvalues --    0.03706   0.07602   0.08479   0.10149   0.11332
 Alpha virt. eigenvalues --    0.11564   0.15340   0.15583   0.16745   0.20071
 Alpha virt. eigenvalues --    0.20145   0.25436   0.32785   0.34235   0.34899

 Mulliken charges:
               1
     1  C   -0.093633
     2  C   -0.001953
     3  N   -0.207178
     4  H    0.098955
     5  H    0.103008
     6  H    0.100801
 Sum of Mulliken charges =   0.00000

 Dipole moment (field-independent basis, Debye):
    X=              4.1093    Y=             -0.0147    Z=              0.0349  Tot=              4.1094
 Quadrupole moment (field-independent basis, Debye-Ang):
   XX=            -21.1635   YY=            -17.6700   ZZ=            -17.7269
   XY=              0.0565   XZ=             -0.1901   YZ=             -0.0410

 Normal termination of Gaussian 09 at Wed Aug 26 15:38:52 2020.
