 Gaussian 09, Revision D.01,
 Gaussian 09:  ES64L-G09RevD.01 24-Apr-2013

 --------------------
 #p B2PLYPD3/Def2QZVP
 --------------------

 ------------
 cyanomethane
 ------------
 Symbolic Z-matrix:
 Charge =  0 Multiplicity = 1

                         Standard orientation:
 ---------------------------------------------------------------------
 Center     Atomic      Atomic             Coordinates (Angstroms)
 Number     Number       Type             X           Y           Z
 ---------------------------------------------------------------------
      1          6           0       -1.169445    0.019080   -0.007473
      2          6           0        0.274096    0.021268    0.004790
      3          7           0        1.441533   -0.017281    0.003159
      4          1           0       -1.510763    0.974183   -0.131572
      5          1           0       -1.655590   -0.433711    0.929746
      6          1           0       -1.552283   -0.661595   -0.804182
 ---------------------------------------------------------------------

 SCF Done:  E(RB2PLYPD3) =  -132.526989237     A.U. after   12 cycles
 E2(B2PLYPD3) =    -0.1818857850D+00 E(B2PLYPD3) =    -0.13270887502164D+03

 The electronic state is 1-A.
 Alpha  occ. eigenvalues --  -14.84679 -10.67165 -10.66724  -1.03690  -0.89445
 Alpha  occ. eigenvalues --   -0.60499  -0.55480  -0.51803  -0.44966  -0.38942
 Alpha  occ. eigenvalues --   -0.38462
 Alpha virt. eigenvalues --    0.03584   0.06689   0.08098   0.10118   0.11061
 Alpha virt. eigenvalues --    0.11767   0.15460   0.16320   0.16733   0.20030
 Alpha virt. eigenvalues --    0.20270   0.25591   0.32390   0.33643   0.35275

 Mulliken charges:
               1
     1  C   -0.075373
     2  C    0.003067
     3  N   -0.211458
     4  H    0.103143
     5  H    0.087573
     6  H    0.093048
 Sum of Mulliken charges =   0.00000

 Dipole moment (field-independent basis, Debye):
    X=             -4.1491    Y=              0.0109    Z=             -0.0159  Tot=              4.1491
 Quadrupole moment (field-independent basis, Debye-Ang):
   XX=            -20.8443   YY=            -17.6983   ZZ=            -18.0101
   XY=              0.2007   XZ=             -0.0771   YZ=              0.0013

 Normal termination of Gaussian 09 at Wed Aug 26 14:32:41 2020.
