 Gaussian 09, Revision D.01,
 Gaussian 09:  ES64L-G09RevD.01 24-Apr-2013

 --------------------
 #p B2PLYPD3/Def2QZVP
 --------------------

 ------------
 cyanomethane
 ------------
 Symbolic Z-matrix:
 Charge =  0 Multiplicity = 1

                         Standard orientation:
 ---------------------------------------------------------------------
 Center     Atomic      Atomic             Coordinates (Angstroms)
 Number     Number       Type             X           Y           Z
 ---------------------------------------------------------------------
      1          6           0       -1.195069   -0.005743   -0.007557
      2          6           0        0.285870    0.022037    0.004295
      3          7           0        1.435696   -0.013335   -0.008103
      4          1           0       -1.607604   -0.865548   -0.533844
      5          1           0       -1.543788    0.931064   -0.420559
      6          1           0       -1.443280   -0.069939    1.030697
 ---------------------------------------------------------------------

 SCF Done:  E(RB2PLYPD3) =  -132.533779722     A.U. after   12 cycles
 E2(B2PLYPD3) =    -0.1800598403D+00 E(B2PLYPD3) =    -0.13271383956229D+03

 The electronic state is 1-A.
 Alpha  occ. eigenvalues --  -14.83998 -10.67110 -10.66128  -1.04174  -0.89145
 Alpha  occ. eigenvalues --   -0.58927  -0.54493  -0.53990  -0.44637  -0.39286
 Alpha  occ. eigenvalues --   -0.39125
 Alpha virt. eigenvalues --    0.03764   0.07989   0.08666   0.10211   0.11281
 Alpha virt. eigenvalues --    0.11454   0.15204   0.15466   0.16905   0.20059
 Alpha virt. eigenvalues --    0.20119   0.24925   0.32546   0.34481   0.35045

 Mulliken charges:
               1
     1  C   -0.092885
     2  C   -0.004477
     3  N   -0.204796
     4  H    0.100576
     5  H    0.100754
     6  H    0.100828
 Sum of Mulliken charges =   0.00000

 Dipole moment (field-independent basis, Debye):
    X=             -4.1265    Y=              0.0191    Z=              0.0377  Tot=              4.1267
 Quadrupole moment (field-independent basis, Debye-Ang):
   XX=            -21.1242   YY=            -17.6368   ZZ=            -17.7684
   XY=              0.1145   XZ=              0.1011   YZ=             -0.0070

 Normal termination of Gaussian 09 at Wed Aug 26 15:53:57 2020.
