 Gaussian 09, Revision D.01,
 Gaussian 09:  ES64L-G09RevD.01 24-Apr-2013

 --------------------
 #p B2PLYPD3/Def2QZVP
 --------------------

 ------------
 cyanomethane
 ------------
 Symbolic Z-matrix:
 Charge =  0 Multiplicity = 1

                         Standard orientation:
 ---------------------------------------------------------------------
 Center     Atomic      Atomic             Coordinates (Angstroms)
 Number     Number       Type             X           Y           Z
 ---------------------------------------------------------------------
      1          6           0        1.177600    0.002853    0.005586
      2          6           0       -0.285556   -0.023504   -0.001665
      3          7           0       -1.435520    0.014408    0.000304
      4          1           0        1.596092    1.008014   -0.217408
      5          1           0        1.543934   -0.677930   -0.748633
      6          1           0        1.556354   -0.307035    0.940388
 ---------------------------------------------------------------------

 SCF Done:  E(RB2PLYPD3) =  -132.534626995     A.U. after   12 cycles
 E2(B2PLYPD3) =    -0.1800800850D+00 E(B2PLYPD3) =    -0.13271470707992D+03

 The electronic state is 1-A.
 Alpha  occ. eigenvalues --  -14.84158 -10.66917 -10.66231  -1.04306  -0.89232
 Alpha  occ. eigenvalues --   -0.60035  -0.54269  -0.53365  -0.44837  -0.39290
 Alpha  occ. eigenvalues --   -0.39188
 Alpha virt. eigenvalues --    0.03747   0.07742   0.08341   0.10184   0.11408
 Alpha virt. eigenvalues --    0.11532   0.15439   0.16160   0.16905   0.20043
 Alpha virt. eigenvalues --    0.20092   0.25295   0.32769   0.34501   0.35057

 Mulliken charges:
               1
     1  C   -0.076523
     2  C   -0.001046
     3  N   -0.203621
     4  H    0.092762
     5  H    0.093175
     6  H    0.095253
 Sum of Mulliken charges =   0.00000

 Dipole moment (field-independent basis, Debye):
    X=              4.1303    Y=             -0.0356    Z=              0.0037  Tot=              4.1304
 Quadrupole moment (field-independent basis, Debye-Ang):
   XX=            -20.8567   YY=            -17.7544   ZZ=            -17.7893
   XY=              0.0883   XZ=              0.0106   YZ=             -0.0043

 Normal termination of Gaussian 09 at Wed Aug 26 23:56:01 2020.
