 Gaussian 09, Revision D.01,
 Gaussian 09:  ES64L-G09RevD.01 24-Apr-2013

 --------------------
 #p B2PLYPD3/Def2QZVP
 --------------------

 ------------
 cyanomethane
 ------------
 Symbolic Z-matrix:
 Charge =  0 Multiplicity = 1

                         Standard orientation:
 ---------------------------------------------------------------------
 Center     Atomic      Atomic             Coordinates (Angstroms)
 Number     Number       Type             X           Y           Z
 ---------------------------------------------------------------------
      1          6           0       -1.193976    0.008530   -0.030786
      2          6           0        0.281781   -0.004897    0.053905
      3          7           0        1.445518   -0.000802   -0.031083
      4          1           0       -1.476210   -0.284083    0.965265
      5          1           0       -1.633781   -0.706693   -0.678695
      6          1           0       -1.535461    0.974593   -0.207706
 ---------------------------------------------------------------------

 SCF Done:  E(RB2PLYPD3) =  -132.528406496     A.U. after   12 cycles
 E2(B2PLYPD3) =    -0.1814380767D+00 E(B2PLYPD3) =    -0.13270984457297D+03

 The electronic state is 1-A.
 Alpha  occ. eigenvalues --  -14.84597 -10.66735 -10.66439  -1.03626  -0.89683
 Alpha  occ. eigenvalues --   -0.60027  -0.55392  -0.53430  -0.44835  -0.39098
 Alpha  occ. eigenvalues --   -0.38673
 Alpha virt. eigenvalues --    0.03764   0.07686   0.08394   0.10009   0.11046
 Alpha virt. eigenvalues --    0.11395   0.15169   0.15389   0.17645   0.20121
 Alpha virt. eigenvalues --    0.20255   0.25260   0.32649   0.34102   0.35885

 Mulliken charges:
               1
     1  C   -0.077526
     2  C    0.004166
     3  N   -0.212270
     4  H    0.090090
     5  H    0.096212
     6  H    0.099328
 Sum of Mulliken charges =   0.00000

 Dipole moment (field-independent basis, Debye):
    X=             -4.1532    Y=             -0.0107    Z=              0.0788  Tot=              4.1540
 Quadrupole moment (field-independent basis, Debye-Ang):
   XX=            -20.8933   YY=            -17.6770   ZZ=            -17.9032
   XY=              0.0771   XZ=              0.1761   YZ=              0.0078

 Normal termination of Gaussian 09 at Wed Aug 26 22:17:51 2020.
