 Gaussian 09, Revision D.01,
 Gaussian 09:  ES64L-G09RevD.01 24-Apr-2013

 --------------------
 #p B2PLYPD3/Def2QZVP
 --------------------

 ------------
 cyanomethane
 ------------
 Symbolic Z-matrix:
 Charge =  0 Multiplicity = 1

                         Standard orientation:
 ---------------------------------------------------------------------
 Center     Atomic      Atomic             Coordinates (Angstroms)
 Number     Number       Type             X           Y           Z
 ---------------------------------------------------------------------
      1          6           0       -1.176822    0.000240    0.008259
      2          6           0        0.280364    0.002595   -0.022005
      3          7           0        1.426615   -0.001954    0.009964
      4          1           0       -1.526440   -0.095693    1.010214
      5          1           0       -1.547866   -0.846357   -0.578965
      6          1           0       -1.533245    0.938714   -0.418523
 ---------------------------------------------------------------------

 SCF Done:  E(RB2PLYPD3) =  -132.535940189     A.U. after   11 cycles
 E2(B2PLYPD3) =    -0.1796990116D+00 E(B2PLYPD3) =    -0.13271563920063D+03

 The electronic state is 1-A.
 Alpha  occ. eigenvalues --  -14.83904 -10.66927 -10.65939  -1.04395  -0.89357
 Alpha  occ. eigenvalues --   -0.59486  -0.54300  -0.54003  -0.44702  -0.39251
 Alpha  occ. eigenvalues --   -0.39206
 Alpha virt. eigenvalues --    0.03804   0.08137   0.08212   0.10187   0.11515
 Alpha virt. eigenvalues --    0.11554   0.15429   0.16140   0.16427   0.20050
 Alpha virt. eigenvalues --    0.20076   0.25374   0.32847   0.34538   0.34899

 Mulliken charges:
               1
     1  C   -0.087000
     2  C   -0.003920
     3  N   -0.202772
     4  H    0.099177
     5  H    0.096694
     6  H    0.097821
 Sum of Mulliken charges =   0.00000

 Dipole moment (field-independent basis, Debye):
    X=             -4.1084    Y=              0.0009    Z=             -0.0050  Tot=              4.1084
 Quadrupole moment (field-independent basis, Debye-Ang):
   XX=            -21.0674   YY=            -17.6566   ZZ=            -17.7221
   XY=              0.0262   XZ=             -0.0663   YZ=             -0.0090

 Normal termination of Gaussian 09 at Wed Aug 26 10:21:17 2020.
