 Gaussian 09, Revision D.01,
 Gaussian 09:  ES64L-G09RevD.01 24-Apr-2013

 --------------------
 #p B2PLYPD3/Def2QZVP
 --------------------

 ------------
 cyanomethane
 ------------
 Symbolic Z-matrix:
 Charge =  0 Multiplicity = 1

                         Standard orientation:
 ---------------------------------------------------------------------
 Center     Atomic      Atomic             Coordinates (Angstroms)
 Number     Number       Type             X           Y           Z
 ---------------------------------------------------------------------
      1          6           0       -1.178275    0.000678    0.007063
      2          6           0        0.265373    0.025219   -0.012595
      3          7           0        1.431770   -0.014035    0.000589
      4          1           0       -1.580076   -0.612728   -0.822392
      5          1           0       -1.509171    1.011607   -0.077466
      6          1           0       -1.455730   -0.456014    0.928926
 ---------------------------------------------------------------------

 SCF Done:  E(RB2PLYPD3) =  -132.532499179     A.U. after   12 cycles
 E2(B2PLYPD3) =    -0.1814434651D+00 E(B2PLYPD3) =    -0.13271394264410D+03

 The electronic state is 1-A.
 Alpha  occ. eigenvalues --  -14.84388 -10.66781 -10.66420  -1.03586  -0.89872
 Alpha  occ. eigenvalues --   -0.59432  -0.55429  -0.53846  -0.44710  -0.38698
 Alpha  occ. eigenvalues --   -0.38570
 Alpha virt. eigenvalues --    0.03777   0.07550   0.08196   0.10135   0.11201
 Alpha virt. eigenvalues --    0.11469   0.15400   0.15735   0.16265   0.20136
 Alpha virt. eigenvalues --    0.20219   0.25568   0.32708   0.34385   0.34945

 Mulliken charges:
               1
     1  C   -0.089603
     2  C   -0.000897
     3  N   -0.214092
     4  H    0.097456
     5  H    0.103186
     6  H    0.103951
 Sum of Mulliken charges =   0.00000

 Dipole moment (field-independent basis, Debye):
    X=             -4.1314    Y=              0.0097    Z=              0.0090  Tot=              4.1315
 Quadrupole moment (field-independent basis, Debye-Ang):
   XX=            -21.1953   YY=            -17.6454   ZZ=            -17.7674
   XY=              0.1097   XZ=              0.0721   YZ=             -0.0394

 Normal termination of Gaussian 09 at Wed Aug 26 11:35:18 2020.
