 Gaussian 09, Revision D.01,
 Gaussian 09:  ES64L-G09RevD.01 24-Apr-2013

 --------------------
 #p B2PLYPD3/Def2QZVP
 --------------------

 ------------
 cyanomethane
 ------------
 Symbolic Z-matrix:
 Charge =  0 Multiplicity = 1

                         Standard orientation:
 ---------------------------------------------------------------------
 Center     Atomic      Atomic             Coordinates (Angstroms)
 Number     Number       Type             X           Y           Z
 ---------------------------------------------------------------------
      1          6           0       -1.193671   -0.004246    0.001106
      2          6           0        0.283109    0.014221   -0.006015
      3          7           0        1.436584   -0.000171    0.006820
      4          1           0       -1.546038   -0.386374    0.928047
      5          1           0       -1.431681   -0.659665   -0.785355
      6          1           0       -1.614990    0.987387   -0.160979
 ---------------------------------------------------------------------

 SCF Done:  E(RB2PLYPD3) =  -132.533459977     A.U. after   12 cycles
 E2(B2PLYPD3) =    -0.1801399426D+00 E(B2PLYPD3) =    -0.13271359991987D+03

 The electronic state is 1-A.
 Alpha  occ. eigenvalues --  -14.84090 -10.66695 -10.66210  -1.04062  -0.89517
 Alpha  occ. eigenvalues --   -0.59230  -0.54982  -0.54091  -0.44660  -0.39175
 Alpha  occ. eigenvalues --   -0.39133
 Alpha virt. eigenvalues --    0.03848   0.08053   0.08685   0.10257   0.11301
 Alpha virt. eigenvalues --    0.11342   0.15193   0.15767   0.16647   0.20085
 Alpha virt. eigenvalues --    0.20113   0.24957   0.32563   0.34996   0.35013

 Mulliken charges:
               1
     1  C   -0.086523
     2  C   -0.004391
     3  N   -0.206765
     4  H    0.098362
     5  H    0.102466
     6  H    0.096851
 Sum of Mulliken charges =   0.00000

 Dipole moment (field-independent basis, Debye):
    X=             -4.1378    Y=             -0.0164    Z=             -0.0104  Tot=              4.1378
 Quadrupole moment (field-independent basis, Debye-Ang):
   XX=            -21.0583   YY=            -17.6863   ZZ=            -17.7243
   XY=             -0.0840   XZ=             -0.1071   YZ=              0.0237

 Normal termination of Gaussian 09 at Wed Aug 26 14:59:50 2020.
