 Gaussian 09, Revision D.01,
 Gaussian 09:  ES64L-G09RevD.01 24-Apr-2013

 --------------------
 #p B2PLYPD3/Def2QZVP
 --------------------

 ------------
 cyanomethane
 ------------
 Symbolic Z-matrix:
 Charge =  0 Multiplicity = 1

                         Standard orientation:
 ---------------------------------------------------------------------
 Center     Atomic      Atomic             Coordinates (Angstroms)
 Number     Number       Type             X           Y           Z
 ---------------------------------------------------------------------
      1          6           0       -1.180113   -0.001301   -0.009051
      2          6           0        0.279725    0.012424    0.000515
      3          7           0        1.427961   -0.002595    0.002689
      4          1           0       -1.541522   -0.338552    0.976173
      5          1           0       -1.476649   -0.702180   -0.747670
      6          1           0       -1.575224    0.992166   -0.196110
 ---------------------------------------------------------------------

 SCF Done:  E(RB2PLYPD3) =  -132.535347671     A.U. after   11 cycles
 E2(B2PLYPD3) =    -0.1798244471D+00 E(B2PLYPD3) =    -0.13271517211830D+03

 The electronic state is 1-A.
 Alpha  occ. eigenvalues --  -14.83924 -10.66940 -10.65977  -1.04307  -0.89392
 Alpha  occ. eigenvalues --   -0.59294  -0.54943  -0.53597  -0.44674  -0.39265
 Alpha  occ. eigenvalues --   -0.39102
 Alpha virt. eigenvalues --    0.03801   0.07993   0.08416   0.10215   0.11395
 Alpha virt. eigenvalues --    0.11605   0.15362   0.16048   0.16407   0.20044
 Alpha virt. eigenvalues --    0.20109   0.25285   0.32778   0.34327   0.35131

 Mulliken charges:
               1
     1  C   -0.088994
     2  C   -0.004293
     3  N   -0.203895
     4  H    0.095672
     5  H    0.102489
     6  H    0.099021
 Sum of Mulliken charges =   0.00000

 Dipole moment (field-independent basis, Debye):
    X=             -4.1141    Y=             -0.0060    Z=              0.0006  Tot=              4.1141
 Quadrupole moment (field-independent basis, Debye-Ang):
   XX=            -21.1005   YY=            -17.6390   ZZ=            -17.7340
   XY=             -0.0297   XZ=             -0.0658   YZ=              0.0393

 Normal termination of Gaussian 09 at Thu Aug 27 00:02:48 2020.
