 Gaussian 09, Revision D.01,
 Gaussian 09:  ES64L-G09RevD.01 24-Apr-2013

 --------------------
 #p B2PLYPD3/Def2QZVP
 --------------------

 ------------
 cyanomethane
 ------------
 Symbolic Z-matrix:
 Charge =  0 Multiplicity = 1

                         Standard orientation:
 ---------------------------------------------------------------------
 Center     Atomic      Atomic             Coordinates (Angstroms)
 Number     Number       Type             X           Y           Z
 ---------------------------------------------------------------------
      1          6           0        1.174799   -0.009109    0.001478
      2          6           0       -0.278481   -0.003183   -0.020707
      3          7           0       -1.439821    0.004659    0.010675
      4          1           0        1.593454    0.995907   -0.236787
      5          1           0        1.548396   -0.697820   -0.695079
      6          1           0        1.558993   -0.256948    0.972510
 ---------------------------------------------------------------------

 SCF Done:  E(RB2PLYPD3) =  -132.533299803     A.U. after   11 cycles
 E2(B2PLYPD3) =    -0.1810119488D+00 E(B2PLYPD3) =    -0.13271431175147D+03

 The electronic state is 1-A.
 Alpha  occ. eigenvalues --  -14.84482 -10.66753 -10.66544  -1.03893  -0.89517
 Alpha  occ. eigenvalues --   -0.60443  -0.54708  -0.53162  -0.44908  -0.39037
 Alpha  occ. eigenvalues --   -0.38853
 Alpha virt. eigenvalues --    0.03767   0.07480   0.08091   0.10154   0.11256
 Alpha virt. eigenvalues --    0.11535   0.15487   0.16406   0.16607   0.20072
 Alpha virt. eigenvalues --    0.20167   0.25442   0.32686   0.34428   0.35227

 Mulliken charges:
               1
     1  C   -0.071225
     2  C    0.001428
     3  N   -0.209191
     4  H    0.089742
     5  H    0.095963
     6  H    0.093284
 Sum of Mulliken charges =   0.00000

 Dipole moment (field-independent basis, Debye):
    X=              4.1485    Y=             -0.0143    Z=             -0.0060  Tot=              4.1485
 Quadrupole moment (field-independent basis, Debye-Ang):
   XX=            -20.8241   YY=            -17.7974   ZZ=            -17.8180
   XY=              0.0458   XZ=              0.0786   YZ=              0.0440

 Normal termination of Gaussian 09 at Thu Aug 27 00:00:29 2020.
