 Gaussian 09, Revision D.01,
 Gaussian 09:  ES64L-G09RevD.01 24-Apr-2013

 --------------------
 #p B2PLYPD3/Def2QZVP
 --------------------

 ------------
 cyanomethane
 ------------
 Symbolic Z-matrix:
 Charge =  0 Multiplicity = 1

                         Standard orientation:
 ---------------------------------------------------------------------
 Center     Atomic      Atomic             Coordinates (Angstroms)
 Number     Number       Type             X           Y           Z
 ---------------------------------------------------------------------
      1          6           0        1.152195   -0.034349    0.001300
      2          6           0       -0.274900    0.054802    0.024805
      3          7           0       -1.426816   -0.025440   -0.010910
      4          1           0        1.563542    1.021936   -0.089158
      5          1           0        1.549636   -0.537457   -0.785513
      6          1           0        1.610770   -0.429117    0.794413
 ---------------------------------------------------------------------

 SCF Done:  E(RB2PLYPD3) =  -132.520685307     A.U. after   11 cycles
 E2(B2PLYPD3) =    -0.1804168098D+00 E(B2PLYPD3) =    -0.13270110211647D+03

 The electronic state is 1-A.
 Alpha  occ. eigenvalues --  -14.84399 -10.66371 -10.65498  -1.04330  -0.90579
 Alpha  occ. eigenvalues --   -0.62620  -0.55056  -0.52946  -0.45058  -0.39299
 Alpha  occ. eigenvalues --   -0.38858
 Alpha virt. eigenvalues --    0.03860   0.07513   0.08160   0.09935   0.11504
 Alpha virt. eigenvalues --    0.11746   0.15724   0.16312   0.17636   0.20020
 Alpha virt. eigenvalues --    0.20266   0.26164   0.32509   0.34602   0.36125

 Mulliken charges:
               1
     1  C   -0.051416
     2  C    0.012423
     3  N   -0.207022
     4  H    0.076729
     5  H    0.084759
     6  H    0.084527
 Sum of Mulliken charges =   0.00000

 Dipole moment (field-independent basis, Debye):
    X=              4.1226    Y=              0.0057    Z=              0.0116  Tot=              4.1226
 Quadrupole moment (field-independent basis, Debye-Ang):
   XX=            -20.5243   YY=            -17.7143   ZZ=            -17.8936
   XY=             -0.2130   XZ=             -0.0365   YZ=             -0.0040

 Normal termination of Gaussian 09 at Wed Aug 26 21:46:57 2020.
