 Gaussian 09, Revision D.01,
 Gaussian 09:  ES64L-G09RevD.01 24-Apr-2013

 --------------------
 #p B2PLYPD3/Def2QZVP
 --------------------

 ------------
 cyanomethane
 ------------
 Symbolic Z-matrix:
 Charge =  0 Multiplicity = 1

                         Standard orientation:
 ---------------------------------------------------------------------
 Center     Atomic      Atomic             Coordinates (Angstroms)
 Number     Number       Type             X           Y           Z
 ---------------------------------------------------------------------
      1          6           0       -1.171781   -0.003398   -0.000389
      2          6           0        0.279115    0.017111   -0.010035
      3          7           0        1.437994   -0.013663    0.004975
      4          1           0       -1.513102    0.901970   -0.493387
      5          1           0       -1.565379    0.000364    1.022979
      6          1           0       -1.631486   -0.888964   -0.501872
 ---------------------------------------------------------------------

 SCF Done:  E(RB2PLYPD3) =  -132.533525731     A.U. after   12 cycles
 E2(B2PLYPD3) =    -0.1811036068D+00 E(B2PLYPD3) =    -0.13271462933775D+03

 The electronic state is 1-A.
 Alpha  occ. eigenvalues --  -14.84415 -10.67363 -10.66481  -1.03994  -0.89080
 Alpha  occ. eigenvalues --   -0.60154  -0.53936  -0.53016  -0.44901  -0.38953
 Alpha  occ. eigenvalues --   -0.38909
 Alpha virt. eigenvalues --    0.03675   0.07254   0.07900   0.10124   0.11406
 Alpha virt. eigenvalues --    0.11574   0.15442   0.16034   0.16981   0.20063
 Alpha virt. eigenvalues --    0.20176   0.25501   0.32650   0.34440   0.34543

 Mulliken charges:
               1
     1  C   -0.080439
     2  C    0.001760
     3  N   -0.207585
     4  H    0.096967
     5  H    0.094633
     6  H    0.094664
 Sum of Mulliken charges =   0.00000

 Dipole moment (field-independent basis, Debye):
    X=             -4.1355    Y=              0.0300    Z=              0.0049  Tot=              4.1356
 Quadrupole moment (field-independent basis, Debye-Ang):
   XX=            -20.8942   YY=            -17.7718   ZZ=            -17.8680
   XY=              0.1386   XZ=             -0.0521   YZ=             -0.0227

 Normal termination of Gaussian 09 at Thu Aug 27 00:13:57 2020.
