 Gaussian 09, Revision D.01,
 Gaussian 09:  ES64L-G09RevD.01 24-Apr-2013

 --------------------
 #p B2PLYPD3/Def2QZVP
 --------------------

 ------------
 cyanomethane
 ------------
 Symbolic Z-matrix:
 Charge =  0 Multiplicity = 1

                         Standard orientation:
 ---------------------------------------------------------------------
 Center     Atomic      Atomic             Coordinates (Angstroms)
 Number     Number       Type             X           Y           Z
 ---------------------------------------------------------------------
      1          6           0        1.177311   -0.014990    0.015144
      2          6           0       -0.269397   -0.014191   -0.032672
      3          7           0       -1.432079    0.009490    0.013786
      4          1           0        1.542060    0.966386   -0.369544
      5          1           0        1.533672   -0.754537   -0.604620
      6          1           0        1.501335   -0.103194    0.982829
 ---------------------------------------------------------------------

 SCF Done:  E(RB2PLYPD3) =  -132.529181884     A.U. after   11 cycles
 E2(B2PLYPD3) =    -0.1808964774D+00 E(B2PLYPD3) =    -0.13271007836109D+03

 The electronic state is 1-A.
 Alpha  occ. eigenvalues --  -14.84375 -10.66396 -10.66024  -1.03756  -0.90303
 Alpha  occ. eigenvalues --   -0.60147  -0.56293  -0.53578  -0.44774  -0.38994
 Alpha  occ. eigenvalues --   -0.38653
 Alpha virt. eigenvalues --    0.03845   0.07780   0.08467   0.10138   0.11109
 Alpha virt. eigenvalues --    0.11534   0.15525   0.15955   0.16452   0.20087
 Alpha virt. eigenvalues --    0.20213   0.25576   0.32748   0.34235   0.35877

 Mulliken charges:
               1
     1  C   -0.074761
     2  C   -0.000349
     3  N   -0.212358
     4  H    0.089550
     5  H    0.098148
     6  H    0.099770
 Sum of Mulliken charges =   0.00000

 Dipole moment (field-independent basis, Debye):
    X=              4.1386    Y=             -0.0086    Z=             -0.0150  Tot=              4.1387
 Quadrupole moment (field-independent basis, Debye-Ang):
   XX=            -20.9929   YY=            -17.7458   ZZ=            -17.6720
   XY=              0.0744   XZ=              0.0461   YZ=              0.0561

 Normal termination of Gaussian 09 at Wed Aug 26 10:28:35 2020.
