 Gaussian 09, Revision D.01,
 Gaussian 09:  ES64L-G09RevD.01 24-Apr-2013

 --------------------
 #p B2PLYPD3/Def2QZVP
 --------------------

 ------------
 cyanomethane
 ------------
 Symbolic Z-matrix:
 Charge =  0 Multiplicity = 1

                         Standard orientation:
 ---------------------------------------------------------------------
 Center     Atomic      Atomic             Coordinates (Angstroms)
 Number     Number       Type             X           Y           Z
 ---------------------------------------------------------------------
      1          6           0        1.174327   -0.010719   -0.012570
      2          6           0       -0.273481    0.037843    0.010591
      3          7           0       -1.440334   -0.022673   -0.007638
      4          1           0        1.507944    1.018672   -0.056262
      5          1           0        1.631632   -0.579852   -0.779115
      6          1           0        1.537682   -0.442854    0.900714
 ---------------------------------------------------------------------

 SCF Done:  E(RB2PLYPD3) =  -132.531106656     A.U. after   12 cycles
 E2(B2PLYPD3) =    -0.1816376255D+00 E(B2PLYPD3) =    -0.13271274428135D+03

 The electronic state is 1-A.
 Alpha  occ. eigenvalues --  -14.84656 -10.66727 -10.66519  -1.03644  -0.89781
 Alpha  occ. eigenvalues --   -0.60856  -0.54384  -0.53662  -0.44931  -0.38805
 Alpha  occ. eigenvalues --   -0.38685
 Alpha virt. eigenvalues --    0.03792   0.07383   0.07975   0.10001   0.11266
 Alpha virt. eigenvalues --    0.11499   0.15441   0.15848   0.17209   0.20097
 Alpha virt. eigenvalues --    0.20284   0.25635   0.32818   0.34508   0.35132

 Mulliken charges:
               1
     1  C   -0.070865
     2  C    0.004678
     3  N   -0.212835
     4  H    0.093920
     5  H    0.094099
     6  H    0.091004
 Sum of Mulliken charges =   0.00000

 Dipole moment (field-independent basis, Debye):
    X=              4.1527    Y=              0.0170    Z=              0.0289  Tot=              4.1528
 Quadrupole moment (field-independent basis, Debye-Ang):
   XX=            -20.8269   YY=            -17.7065   ZZ=            -17.9272
   XY=             -0.2218   XZ=             -0.0494   YZ=              0.0125

 Normal termination of Gaussian 09 at Wed Aug 26 16:05:53 2020.
