 Gaussian 09, Revision D.01,
 Gaussian 09:  ES64L-G09RevD.01 24-Apr-2013

 --------------------
 #p B2PLYPD3/Def2QZVP
 --------------------

 ------------
 cyanomethane
 ------------
 Symbolic Z-matrix:
 Charge =  0 Multiplicity = 1

                         Standard orientation:
 ---------------------------------------------------------------------
 Center     Atomic      Atomic             Coordinates (Angstroms)
 Number     Number       Type             X           Y           Z
 ---------------------------------------------------------------------
      1          6           0        1.181816   -0.002285   -0.012903
      2          6           0       -0.272021    0.011173    0.013386
      3          7           0       -1.437344   -0.005652   -0.003363
      4          1           0        1.562601   -0.459731    0.923389
      5          1           0        1.531308    1.023596   -0.061298
      6          1           0        1.508728   -0.577634   -0.841447
 ---------------------------------------------------------------------

 SCF Done:  E(RB2PLYPD3) =  -132.533691798     A.U. after   11 cycles
 E2(B2PLYPD3) =    -0.1813532071D+00 E(B2PLYPD3) =    -0.13271504500553D+03

 The electronic state is 1-A.
 Alpha  occ. eigenvalues --  -14.84429 -10.67022 -10.66494  -1.03648  -0.89494
 Alpha  occ. eigenvalues --   -0.59541  -0.54965  -0.53599  -0.44759  -0.38833
 Alpha  occ. eigenvalues --   -0.38669
 Alpha virt. eigenvalues --    0.03767   0.07649   0.07988   0.10152   0.11235
 Alpha virt. eigenvalues --    0.11416   0.15358   0.16004   0.16246   0.20126
 Alpha virt. eigenvalues --    0.20175   0.25390   0.32584   0.34218   0.35049

 Mulliken charges:
               1
     1  C   -0.086851
     2  C   -0.000690
     3  N   -0.212209
     4  H    0.096065
     5  H    0.100307
     6  H    0.103378
 Sum of Mulliken charges =   0.00000

 Dipole moment (field-independent basis, Debye):
    X=              4.1388    Y=              0.0048    Z=              0.0051  Tot=              4.1388
 Quadrupole moment (field-independent basis, Debye-Ang):
   XX=            -21.1152   YY=            -17.7151   ZZ=            -17.7735
   XY=             -0.0375   XZ=              0.0291   YZ=              0.0457

 Normal termination of Gaussian 09 at Wed Aug 26 19:41:18 2020.
