 Gaussian 09, Revision D.01,
 Gaussian 09:  ES64L-G09RevD.01 24-Apr-2013

 --------------------
 #p B2PLYPD3/Def2QZVP
 --------------------

 ------------
 cyanomethane
 ------------
 Symbolic Z-matrix:
 Charge =  0 Multiplicity = 1

                         Standard orientation:
 ---------------------------------------------------------------------
 Center     Atomic      Atomic             Coordinates (Angstroms)
 Number     Number       Type             X           Y           Z
 ---------------------------------------------------------------------
      1          6           0       -1.188225    0.017518    0.000993
      2          6           0        0.275467   -0.018578    0.028818
      3          7           0        1.440394    0.013897   -0.019267
      4          1           0       -1.446582   -0.513304    0.861454
      5          1           0       -1.541988   -0.578957   -0.856694
      6          1           0       -1.617642    1.001338   -0.048754
 ---------------------------------------------------------------------

 SCF Done:  E(RB2PLYPD3) =  -132.530169166     A.U. after   12 cycles
 E2(B2PLYPD3) =    -0.1814494037D+00 E(B2PLYPD3) =    -0.13271161856939D+03

 The electronic state is 1-A.
 Alpha  occ. eigenvalues --  -14.84486 -10.66781 -10.66588  -1.03620  -0.89652
 Alpha  occ. eigenvalues --   -0.59650  -0.55237  -0.53503  -0.44770  -0.38916
 Alpha  occ. eigenvalues --   -0.38652
 Alpha virt. eigenvalues --    0.03728   0.07462   0.08499   0.10070   0.11130
 Alpha virt. eigenvalues --    0.11430   0.15227   0.15440   0.17118   0.20108
 Alpha virt. eigenvalues --    0.20239   0.25298   0.32613   0.34248   0.35337

 Mulliken charges:
               1
     1  C   -0.085658
     2  C    0.000799
     3  N   -0.212688
     4  H    0.100974
     5  H    0.094300
     6  H    0.102273
 Sum of Mulliken charges =   0.00000

 Dipole moment (field-independent basis, Debye):
    X=             -4.1463    Y=             -0.0472    Z=              0.0321  Tot=              4.1467
 Quadrupole moment (field-independent basis, Debye-Ang):
   XX=            -21.0416   YY=            -17.6544   ZZ=            -17.8635
   XY=             -0.1055   XZ=              0.1655   YZ=             -0.0490

 Normal termination of Gaussian 09 at Wed Aug 26 13:13:12 2020.
