 Gaussian 09, Revision D.01,
 Gaussian 09:  ES64L-G09RevD.01 24-Apr-2013

 --------------------
 #p B2PLYPD3/Def2QZVP
 --------------------

 ------------
 cyanomethane
 ------------
 Symbolic Z-matrix:
 Charge =  0 Multiplicity = 1

                         Standard orientation:
 ---------------------------------------------------------------------
 Center     Atomic      Atomic             Coordinates (Angstroms)
 Number     Number       Type             X           Y           Z
 ---------------------------------------------------------------------
      1          6           0       -1.178601   -0.000153    0.005861
      2          6           0        0.284369    0.025830   -0.000465
      3          7           0        1.426748   -0.013130   -0.002690
      4          1           0       -1.508927   -0.298036    0.991539
      5          1           0       -1.558384   -0.765255   -0.736852
      6          1           0       -1.554530    1.001140   -0.268230
 ---------------------------------------------------------------------

 SCF Done:  E(RB2PLYPD3) =  -132.534494832     A.U. after   12 cycles
 E2(B2PLYPD3) =    -0.1796931839D+00 E(B2PLYPD3) =    -0.13271418801605D+03

 The electronic state is 1-A.
 Alpha  occ. eigenvalues --  -14.83812 -10.67642 -10.65865  -1.04529  -0.88770
 Alpha  occ. eigenvalues --   -0.58996  -0.54286  -0.53052  -0.44680  -0.39362
 Alpha  occ. eigenvalues --   -0.39207
 Alpha virt. eigenvalues --    0.03654   0.07752   0.08269   0.10197   0.11498
 Alpha virt. eigenvalues --    0.11712   0.15332   0.16130   0.16391   0.19995
 Alpha virt. eigenvalues --    0.20077   0.25265   0.32624   0.33980   0.34738

 Mulliken charges:
               1
     1  C   -0.097180
     2  C   -0.004099
     3  N   -0.199934
     4  H    0.102564
     5  H    0.097585
     6  H    0.101065
 Sum of Mulliken charges =   0.00000

 Dipole moment (field-independent basis, Debye):
    X=             -4.0933    Y=              0.0109    Z=              0.0137  Tot=              4.0933
 Quadrupole moment (field-independent basis, Debye-Ang):
   XX=            -21.1579   YY=            -17.6547   ZZ=            -17.7409
   XY=              0.0911   XZ=              0.0360   YZ=             -0.0426

 Normal termination of Gaussian 09 at Wed Aug 26 23:58:47 2020.
