 Gaussian 09, Revision D.01,
 Gaussian 09:  ES64L-G09RevD.01 24-Apr-2013

 --------------------
 #p B2PLYPD3/Def2QZVP
 --------------------

 ------------
 cyanomethane
 ------------
 Symbolic Z-matrix:
 Charge =  0 Multiplicity = 1

                         Standard orientation:
 ---------------------------------------------------------------------
 Center     Atomic      Atomic             Coordinates (Angstroms)
 Number     Number       Type             X           Y           Z
 ---------------------------------------------------------------------
      1          6           0       -1.201947   -0.006558    0.021292
      2          6           0        0.283590    0.029755    0.045357
      3          7           0        1.447899   -0.010826   -0.029668
      4          1           0       -1.484012   -0.191976    0.977489
      5          1           0       -1.534190   -0.913687   -0.714378
      6          1           0       -1.606947    1.042266   -0.455327
 ---------------------------------------------------------------------

 SCF Done:  E(RB2PLYPD3) =  -132.510151672     A.U. after   12 cycles
 E2(B2PLYPD3) =    -0.1826884283D+00 E(B2PLYPD3) =    -0.13269284010010D+03

 The electronic state is 1-A.
 Alpha  occ. eigenvalues --  -14.84551 -10.69202 -10.66704  -1.03515  -0.88017
 Alpha  occ. eigenvalues --   -0.58359  -0.54482  -0.50960  -0.44700  -0.38912
 Alpha  occ. eigenvalues --   -0.38398
 Alpha virt. eigenvalues --    0.02901   0.06081   0.08500   0.10159   0.10818
 Alpha virt. eigenvalues --    0.11564   0.14889   0.15572   0.16151   0.20034
 Alpha virt. eigenvalues --    0.20160   0.24833   0.30804   0.31785   0.34084

 Mulliken charges:
               1
     1  C   -0.121617
     2  C    0.004712
     3  N   -0.210773
     4  H    0.119164
     5  H    0.103451
     6  H    0.105063
 Sum of Mulliken charges =   0.00000

 Dipole moment (field-independent basis, Debye):
    X=             -4.0953    Y=             -0.0045    Z=              0.0556  Tot=              4.0957
 Quadrupole moment (field-independent basis, Debye-Ang):
   XX=            -21.4826   YY=            -17.7525   ZZ=            -17.8154
   XY=              0.0350   XZ=              0.1853   YZ=             -0.0775

 Normal termination of Gaussian 09 at Wed Aug 26 21:39:31 2020.
