 Gaussian 09, Revision D.01,
 Gaussian 09:  ES64L-G09RevD.01 24-Apr-2013

 --------------------
 #p B2PLYPD3/Def2QZVP
 --------------------

 ------------
 cyanomethane
 ------------
 Symbolic Z-matrix:
 Charge =  0 Multiplicity = 1

                         Standard orientation:
 ---------------------------------------------------------------------
 Center     Atomic      Atomic             Coordinates (Angstroms)
 Number     Number       Type             X           Y           Z
 ---------------------------------------------------------------------
      1          6           0       -1.178228    0.017426    0.007639
      2          6           0        0.270085   -0.059899   -0.013115
      3          7           0        1.455633    0.031425    0.004803
      4          1           0       -1.551402   -0.390260    0.869376
      5          1           0       -1.576409   -0.543641   -0.777356
      6          1           0       -1.612760    0.968767   -0.092786
 ---------------------------------------------------------------------

 SCF Done:  E(RB2PLYPD3) =  -132.523047793     A.U. after   13 cycles
 E2(B2PLYPD3) =    -0.1832272254D+00 E(B2PLYPD3) =    -0.13270627501869D+03

 The electronic state is 1-A.
 Alpha  occ. eigenvalues --  -14.85370 -10.67448 -10.65552  -1.02933  -0.90495
 Alpha  occ. eigenvalues --   -0.61762  -0.54982  -0.54092  -0.45134  -0.38491
 Alpha  occ. eigenvalues --   -0.38390
 Alpha virt. eigenvalues --    0.03756   0.07016   0.07801   0.09997   0.11049
 Alpha virt. eigenvalues --    0.11353   0.15614   0.15954   0.17291   0.20202
 Alpha virt. eigenvalues --    0.20371   0.25738   0.32745   0.35142   0.35501

 Mulliken charges:
               1
     1  C   -0.046434
     2  C    0.010543
     3  N   -0.220258
     4  H    0.087020
     5  H    0.082923
     6  H    0.086206
 Sum of Mulliken charges =   0.00000

 Dipole moment (field-independent basis, Debye):
    X=             -4.1985    Y=             -0.0514    Z=             -0.0084  Tot=              4.1988
 Quadrupole moment (field-independent basis, Debye-Ang):
   XX=            -20.5299   YY=            -17.9059   ZZ=            -17.9105
   XY=             -0.1521   XZ=              0.0060   YZ=             -0.0260

 Normal termination of Gaussian 09 at Wed Aug 26 21:40:48 2020.
