 Gaussian 09, Revision D.01,
 Gaussian 09:  ES64L-G09RevD.01 24-Apr-2013

 --------------------
 #p B2PLYPD3/Def2QZVP
 --------------------

 ------------
 cyanomethane
 ------------
 Symbolic Z-matrix:
 Charge =  0 Multiplicity = 1

                         Standard orientation:
 ---------------------------------------------------------------------
 Center     Atomic      Atomic             Coordinates (Angstroms)
 Number     Number       Type             X           Y           Z
 ---------------------------------------------------------------------
      1          6           0       -1.189313    0.007618   -0.009870
      2          6           0        0.276616    0.021529   -0.013685
      3          7           0        1.440488   -0.018879    0.011726
      4          1           0       -1.442377    1.057001   -0.087249
      5          1           0       -1.616025   -0.450993    0.966045
      6          1           0       -1.548835   -0.648734   -0.819551
 ---------------------------------------------------------------------

 SCF Done:  E(RB2PLYPD3) =  -132.528199301     A.U. after   12 cycles
 E2(B2PLYPD3) =    -0.1818285427D+00 E(B2PLYPD3) =    -0.13271002784415D+03

 The electronic state is 1-A.
 Alpha  occ. eigenvalues --  -14.84418 -10.68057 -10.66527  -1.03642  -0.88740
 Alpha  occ. eigenvalues --   -0.58826  -0.55113  -0.52110  -0.44715  -0.38854
 Alpha  occ. eigenvalues --   -0.38566
 Alpha virt. eigenvalues --    0.03490   0.06958   0.08195   0.10137   0.11076
 Alpha virt. eigenvalues --    0.11589   0.15039   0.15766   0.16404   0.20056
 Alpha virt. eigenvalues --    0.20216   0.25152   0.32142   0.33418   0.34811

 Mulliken charges:
               1
     1  C   -0.101356
     2  C    0.000057
     3  N   -0.211011
     4  H    0.110514
     5  H    0.096436
     6  H    0.105360
 Sum of Mulliken charges =   0.00000

 Dipole moment (field-independent basis, Debye):
    X=             -4.1207    Y=              0.0123    Z=             -0.0158  Tot=              4.1208
 Quadrupole moment (field-independent basis, Debye-Ang):
   XX=            -21.2807   YY=            -17.5975   ZZ=            -17.9383
   XY=              0.2662   XZ=             -0.1336   YZ=              0.0478

 Normal termination of Gaussian 09 at Wed Aug 26 16:22:01 2020.
