 Gaussian 09, Revision D.01,
 Gaussian 09:  ES64L-G09RevD.01 24-Apr-2013

 --------------------
 #p B2PLYPD3/Def2QZVP
 --------------------

 ------------
 cyanomethane
 ------------
 Symbolic Z-matrix:
 Charge =  0 Multiplicity = 1

                         Standard orientation:
 ---------------------------------------------------------------------
 Center     Atomic      Atomic             Coordinates (Angstroms)
 Number     Number       Type             X           Y           Z
 ---------------------------------------------------------------------
      1          6           0        1.176462   -0.011939    0.006841
      2          6           0       -0.273553    0.020436    0.000266
      3          7           0       -1.433004   -0.009417   -0.001762
      4          1           0        1.539735    1.023910   -0.144169
      5          1           0        1.547513   -0.621830   -0.818259
      6          1           0        1.526330   -0.387140    0.932118
 ---------------------------------------------------------------------

 SCF Done:  E(RB2PLYPD3) =  -132.534335323     A.U. after   11 cycles
 E2(B2PLYPD3) =    -0.1808695821D+00 E(B2PLYPD3) =    -0.13271520490480D+03

 The electronic state is 1-A.
 Alpha  occ. eigenvalues --  -14.84285 -10.66968 -10.66327  -1.03897  -0.89495
 Alpha  occ. eigenvalues --   -0.59730  -0.54750  -0.53591  -0.44770  -0.38971
 Alpha  occ. eigenvalues --   -0.38787
 Alpha virt. eigenvalues --    0.03773   0.07720   0.08020   0.10142   0.11335
 Alpha virt. eigenvalues --    0.11503   0.15438   0.15946   0.16492   0.20110
 Alpha virt. eigenvalues --    0.20142   0.25486   0.32708   0.34209   0.35067

 Mulliken charges:
               1
     1  C   -0.085391
     2  C   -0.000747
     3  N   -0.209399
     4  H    0.095539
     5  H    0.098347
     6  H    0.101650
 Sum of Mulliken charges =   0.00000

 Dipole moment (field-independent basis, Debye):
    X=              4.1283    Y=              0.0124    Z=              0.0018  Tot=              4.1283
 Quadrupole moment (field-independent basis, Debye-Ang):
   XX=            -21.0708   YY=            -17.7575   ZZ=            -17.7122
   XY=             -0.0499   XZ=             -0.0292   YZ=             -0.0184

 Normal termination of Gaussian 09 at Thu Aug 27 00:01:48 2020.
