 Gaussian 09, Revision D.01,
 Gaussian 09:  ES64L-G09RevD.01 24-Apr-2013

 --------------------
 #p B2PLYPD3/Def2QZVP
 --------------------

 ------------
 cyanomethane
 ------------
 Symbolic Z-matrix:
 Charge =  0 Multiplicity = 1

                         Standard orientation:
 ---------------------------------------------------------------------
 Center     Atomic      Atomic             Coordinates (Angstroms)
 Number     Number       Type             X           Y           Z
 ---------------------------------------------------------------------
      1          6           0        1.175371    0.008815   -0.011030
      2          6           0       -0.289161   -0.035979   -0.012057
      3          7           0       -1.438019    0.016091    0.006034
      4          1           0        1.559521    1.023444   -0.137319
      5          1           0        1.618362   -0.632674   -0.743763
      6          1           0        1.570993   -0.340425    0.977368
 ---------------------------------------------------------------------

 SCF Done:  E(RB2PLYPD3) =  -132.534184766     A.U. after   12 cycles
 E2(B2PLYPD3) =    -0.1802584077D+00 E(B2PLYPD3) =    -0.13271444317351D+03

 The electronic state is 1-A.
 Alpha  occ. eigenvalues --  -14.84226 -10.67293 -10.66323  -1.04369  -0.88850
 Alpha  occ. eigenvalues --   -0.60216  -0.54035  -0.52657  -0.44908  -0.39387
 Alpha  occ. eigenvalues --   -0.39134
 Alpha virt. eigenvalues --    0.03676   0.07612   0.08032   0.10179   0.11362
 Alpha virt. eigenvalues --    0.11676   0.15415   0.16353   0.16993   0.20000
 Alpha virt. eigenvalues --    0.20093   0.25318   0.32665   0.34091   0.35146

 Mulliken charges:
               1
     1  C   -0.075518
     2  C    0.001212
     3  N   -0.202587
     4  H    0.095043
     5  H    0.093838
     6  H    0.088013
 Sum of Mulliken charges =   0.00000

 Dipole moment (field-independent basis, Debye):
    X=              4.1288    Y=             -0.0255    Z=              0.0010  Tot=              4.1289
 Quadrupole moment (field-independent basis, Debye-Ang):
   XX=            -20.7878   YY=            -17.7663   ZZ=            -17.8793
   XY=              0.0516   XZ=              0.0380   YZ=              0.0369

 Normal termination of Gaussian 09 at Wed Aug 26 14:31:40 2020.
