 Gaussian 09, Revision D.01,
 Gaussian 09:  ES64L-G09RevD.01 24-Apr-2013

 --------------------
 #p B2PLYPD3/Def2QZVP
 --------------------

 ------------
 cyanomethane
 ------------
 Symbolic Z-matrix:
 Charge =  0 Multiplicity = 1

                         Standard orientation:
 ---------------------------------------------------------------------
 Center     Atomic      Atomic             Coordinates (Angstroms)
 Number     Number       Type             X           Y           Z
 ---------------------------------------------------------------------
      1          6           0        1.170863    0.010360    0.015253
      2          6           0       -0.277013    0.007143   -0.030018
      3          7           0       -1.441715   -0.004315    0.015404
      4          1           0        1.583543    1.044772   -0.067450
      5          1           0        1.556050   -0.615380   -0.859728
      6          1           0        1.589313   -0.504203    0.907939
 ---------------------------------------------------------------------

 SCF Done:  E(RB2PLYPD3) =  -132.530270429     A.U. after   12 cycles
 E2(B2PLYPD3) =    -0.1820217714D+00 E(B2PLYPD3) =    -0.13271229219992D+03

 The electronic state is 1-A.
 Alpha  occ. eigenvalues --  -14.84614 -10.68093 -10.66688  -1.03761  -0.88616
 Alpha  occ. eigenvalues --   -0.59957  -0.53728  -0.52243  -0.44945  -0.38867
 Alpha  occ. eigenvalues --   -0.38552
 Alpha virt. eigenvalues --    0.03538   0.06979   0.07262   0.10074   0.11306
 Alpha virt. eigenvalues --    0.11677   0.15403   0.15891   0.17001   0.20081
 Alpha virt. eigenvalues --    0.20189   0.25579   0.32326   0.33507   0.34649

 Mulliken charges:
               1
     1  C   -0.088484
     2  C    0.004653
     3  N   -0.209549
     4  H    0.101599
     5  H    0.092832
     6  H    0.098950
 Sum of Mulliken charges =   0.00000

 Dipole moment (field-independent basis, Debye):
    X=              4.1310    Y=             -0.0191    Z=             -0.0209  Tot=              4.1311
 Quadrupole moment (field-independent basis, Debye-Ang):
   XX=            -20.9882   YY=            -17.7222   ZZ=            -17.9990
   XY=             -0.0791   XZ=              0.1019   YZ=             -0.0366

 Normal termination of Gaussian 09 at Wed Aug 26 14:43:12 2020.
