 Gaussian 09, Revision D.01,
 Gaussian 09:  ES64L-G09RevD.01 24-Apr-2013

 --------------------
 #p B2PLYPD3/Def2QZVP
 --------------------

 ------------
 cyanomethane
 ------------
 Symbolic Z-matrix:
 Charge =  0 Multiplicity = 1

                         Standard orientation:
 ---------------------------------------------------------------------
 Center     Atomic      Atomic             Coordinates (Angstroms)
 Number     Number       Type             X           Y           Z
 ---------------------------------------------------------------------
      1          6           0       -1.183503    0.001264   -0.003089
      2          6           0        0.283344   -0.022313    0.003143
      3          7           0        1.431235    0.010581    0.000135
      4          1           0       -1.523018    1.017780   -0.108072
      5          1           0       -1.563506   -0.389145    0.918441
      6          1           0       -1.531168   -0.576406   -0.811642
 ---------------------------------------------------------------------

 SCF Done:  E(RB2PLYPD3) =  -132.535466408     A.U. after   11 cycles
 E2(B2PLYPD3) =    -0.1796308317D+00 E(B2PLYPD3) =    -0.13271509724001D+03

 The electronic state is 1-A.
 Alpha  occ. eigenvalues --  -14.83978 -10.66503 -10.66041  -1.04318  -0.89583
 Alpha  occ. eigenvalues --   -0.59592  -0.54811  -0.54122  -0.44711  -0.39325
 Alpha  occ. eigenvalues --   -0.39243
 Alpha virt. eigenvalues --    0.03861   0.08240   0.08540   0.10226   0.11347
 Alpha virt. eigenvalues --    0.11490   0.15393   0.16252   0.16407   0.20045
 Alpha virt. eigenvalues --    0.20085   0.25189   0.32882   0.34820   0.35204

 Mulliken charges:
               1
     1  C   -0.079256
     2  C   -0.004485
     3  N   -0.203703
     4  H    0.095686
     5  H    0.094678
     6  H    0.097080
 Sum of Mulliken charges =   0.00000

 Dipole moment (field-independent basis, Debye):
    X=             -4.1266    Y=             -0.0127    Z=             -0.0011  Tot=              4.1266
 Quadrupole moment (field-independent basis, Debye-Ang):
   XX=            -20.9726   YY=            -17.7018   ZZ=            -17.6915
   XY=             -0.0489   XZ=             -0.0250   YZ=              0.0192

 Normal termination of Gaussian 09 at Wed Aug 26 13:06:42 2020.
