 Gaussian 09, Revision D.01,
 Gaussian 09:  ES64L-G09RevD.01 24-Apr-2013

 --------------------
 #p B2PLYPD3/Def2QZVP
 --------------------

 ------------
 cyanomethane
 ------------
 Symbolic Z-matrix:
 Charge =  0 Multiplicity = 1

                         Standard orientation:
 ---------------------------------------------------------------------
 Center     Atomic      Atomic             Coordinates (Angstroms)
 Number     Number       Type             X           Y           Z
 ---------------------------------------------------------------------
      1          6           0       -1.190656    0.030790    0.001143
      2          6           0        0.293104    0.047333    0.012610
      3          7           0        1.437570   -0.043607   -0.009981
      4          1           0       -1.753538   -0.880605   -0.592276
      5          1           0       -1.386719    0.888348   -0.405021
      6          1           0       -1.537418   -0.171230    0.984643
 ---------------------------------------------------------------------

 SCF Done:  E(RB2PLYPD3) =  -132.506996949     A.U. after   12 cycles
 E2(B2PLYPD3) =    -0.1804367585D+00 E(B2PLYPD3) =    -0.13268743370720D+03

 The electronic state is 1-A.
 Alpha  occ. eigenvalues --  -14.84146 -10.67119 -10.66203  -1.04415  -0.89502
 Alpha  occ. eigenvalues --   -0.59149  -0.57576  -0.50355  -0.44793  -0.39666
 Alpha  occ. eigenvalues --   -0.38890
 Alpha virt. eigenvalues --    0.03028   0.06901   0.09508   0.10242   0.10788
 Alpha virt. eigenvalues --    0.11837   0.15123   0.15825   0.17277   0.19868
 Alpha virt. eigenvalues --    0.20293   0.24951   0.31071   0.33503   0.36255

 Mulliken charges:
               1
     1  C   -0.095561
     2  C   -0.003233
     3  N   -0.201075
     4  H    0.083791
     5  H    0.115835
     6  H    0.100244
 Sum of Mulliken charges =   0.00000

 Dipole moment (field-independent basis, Debye):
    X=             -4.1015    Y=              0.0678    Z=              0.0687  Tot=              4.1027
 Quadrupole moment (field-independent basis, Debye-Ang):
   XX=            -20.9051   YY=            -17.6810   ZZ=            -17.8968
   XY=              0.5187   XZ=             -0.0100   YZ=             -0.2423

 Normal termination of Gaussian 09 at Wed Aug 26 22:24:26 2020.
