 Gaussian 09, Revision D.01,
 Gaussian 09:  ES64L-G09RevD.01 24-Apr-2013

 --------------------
 #p B2PLYPD3/Def2QZVP
 --------------------

 ------------
 cyanomethane
 ------------
 Symbolic Z-matrix:
 Charge =  0 Multiplicity = 1

                         Standard orientation:
 ---------------------------------------------------------------------
 Center     Atomic      Atomic             Coordinates (Angstroms)
 Number     Number       Type             X           Y           Z
 ---------------------------------------------------------------------
      1          6           0        1.178426   -0.014253   -0.019114
      2          6           0       -0.297165   -0.031156   -0.017976
      3          7           0       -1.446198    0.014889    0.021246
      4          1           0        1.752229    0.040358    0.973518
      5          1           0        1.501420    0.954493   -0.443658
      6          1           0        1.582179   -0.826620   -0.456038
 ---------------------------------------------------------------------

 SCF Done:  E(RB2PLYPD3) =  -132.522265056     A.U. after   12 cycles
 E2(B2PLYPD3) =    -0.1805364836D+00 E(B2PLYPD3) =    -0.13270280154001D+03

 The electronic state is 1-A.
 Alpha  occ. eigenvalues --  -14.84378 -10.67149 -10.66557  -1.04426  -0.88977
 Alpha  occ. eigenvalues --   -0.60946  -0.55575  -0.50569  -0.45016  -0.39668
 Alpha  occ. eigenvalues --   -0.38948
 Alpha virt. eigenvalues --    0.03506   0.06886   0.08634   0.10209   0.10995
 Alpha virt. eigenvalues --    0.11999   0.15265   0.16638   0.17474   0.19859
 Alpha virt. eigenvalues --    0.20305   0.25038   0.32199   0.33632   0.35542

 Mulliken charges:
               1
     1  C   -0.068611
     2  C    0.006661
     3  N   -0.202323
     4  H    0.076082
     5  H    0.090566
     6  H    0.097625
 Sum of Mulliken charges =   0.00000

 Dipole moment (field-independent basis, Debye):
    X=              4.1516    Y=             -0.0035    Z=             -0.0210  Tot=              4.1516
 Quadrupole moment (field-independent basis, Debye-Ang):
   XX=            -20.5226   YY=            -17.6258   ZZ=            -18.2202
   XY=              0.0752   XZ=              0.3109   YZ=              0.0707

 Normal termination of Gaussian 09 at Wed Aug 26 20:25:05 2020.
