 Gaussian 09, Revision D.01,
 Gaussian 09:  ES64L-G09RevD.01 24-Apr-2013

 --------------------
 #p B2PLYPD3/Def2QZVP
 --------------------

 ------------
 cyanomethane
 ------------
 Symbolic Z-matrix:
 Charge =  0 Multiplicity = 1

                         Standard orientation:
 ---------------------------------------------------------------------
 Center     Atomic      Atomic             Coordinates (Angstroms)
 Number     Number       Type             X           Y           Z
 ---------------------------------------------------------------------
      1          6           0        1.166983    0.013349    0.006766
      2          6           0       -0.280804    0.006628   -0.026428
      3          7           0       -1.431827   -0.006346    0.015492
      4          1           0        1.603567   -0.160173    0.977304
      5          1           0        1.539230    0.907000   -0.368961
      6          1           0        1.562917   -0.822269   -0.598809
 ---------------------------------------------------------------------

 SCF Done:  E(RB2PLYPD3) =  -132.532954450     A.U. after   11 cycles
 E2(B2PLYPD3) =    -0.1801523979D+00 E(B2PLYPD3) =    -0.13271310684778D+03

 The electronic state is 1-A.
 Alpha  occ. eigenvalues --  -14.84212 -10.66494 -10.66238  -1.04318  -0.89665
 Alpha  occ. eigenvalues --   -0.60746  -0.54983  -0.52858  -0.44902  -0.39318
 Alpha  occ. eigenvalues --   -0.39016
 Alpha virt. eigenvalues --    0.03798   0.07594   0.08330   0.10135   0.11323
 Alpha virt. eigenvalues --    0.11741   0.15586   0.16279   0.17048   0.20012
 Alpha virt. eigenvalues --    0.20164   0.25589   0.32946   0.34366   0.35458

 Mulliken charges:
               1
     1  C   -0.067478
     2  C    0.001231
     3  N   -0.204592
     4  H    0.089270
     5  H    0.095073
     6  H    0.086497
 Sum of Mulliken charges =   0.00000

 Dipole moment (field-independent basis, Debye):
    X=              4.1329    Y=             -0.0002    Z=             -0.0179  Tot=              4.1330
 Quadrupole moment (field-independent basis, Debye-Ang):
   XX=            -20.7451   YY=            -17.7021   ZZ=            -17.8655
   XY=             -0.0871   XZ=              0.1369   YZ=             -0.0568

 Normal termination of Gaussian 09 at Wed Aug 26 13:49:38 2020.
