 Gaussian 09, Revision D.01,
 Gaussian 09:  ES64L-G09RevD.01 24-Apr-2013

 --------------------
 #p B2PLYPD3/Def2QZVP
 --------------------

 ------------
 cyanomethane
 ------------
 Symbolic Z-matrix:
 Charge =  0 Multiplicity = 1

                         Standard orientation:
 ---------------------------------------------------------------------
 Center     Atomic      Atomic             Coordinates (Angstroms)
 Number     Number       Type             X           Y           Z
 ---------------------------------------------------------------------
      1          6           0        1.170796    0.007807   -0.004536
      2          6           0       -0.278254   -0.015605   -0.000938
      3          7           0       -1.431338    0.008444    0.001067
      4          1           0        1.568983    1.037263   -0.120717
      5          1           0        1.545125   -0.639601   -0.806422
      6          1           0        1.550013   -0.409980    0.952514
 ---------------------------------------------------------------------

 SCF Done:  E(RB2PLYPD3) =  -132.534713608     A.U. after   12 cycles
 E2(B2PLYPD3) =    -0.1805886709D+00 E(B2PLYPD3) =    -0.13271530227934D+03

 The electronic state is 1-A.
 Alpha  occ. eigenvalues --  -14.84164 -10.67522 -10.66202  -1.04189  -0.88993
 Alpha  occ. eigenvalues --   -0.59686  -0.53870  -0.53248  -0.44807  -0.39079
 Alpha  occ. eigenvalues --   -0.38948
 Alpha virt. eigenvalues --    0.03674   0.07556   0.07819   0.10149   0.11496
 Alpha virt. eigenvalues --    0.11634   0.15436   0.16039   0.16691   0.20068
 Alpha virt. eigenvalues --    0.20109   0.25514   0.32715   0.34122   0.34599

 Mulliken charges:
               1
     1  C   -0.088544
     2  C   -0.000360
     3  N   -0.205083
     4  H    0.099930
     5  H    0.098290
     6  H    0.095768
 Sum of Mulliken charges =   0.00000

 Dipole moment (field-independent basis, Debye):
    X=              4.1160    Y=             -0.0255    Z=              0.0041  Tot=              4.1161
 Quadrupole moment (field-independent basis, Debye-Ang):
   XX=            -21.0355   YY=            -17.6926   ZZ=            -17.8306
   XY=              0.0319   XZ=              0.0231   YZ=              0.0142

 Normal termination of Gaussian 09 at Thu Aug 27 00:01:49 2020.
