 Gaussian 09, Revision D.01,
 Gaussian 09:  ES64L-G09RevD.01 24-Apr-2013

 --------------------
 #p B2PLYPD3/Def2QZVP
 --------------------

 ------------
 cyanomethane
 ------------
 Symbolic Z-matrix:
 Charge =  0 Multiplicity = 1

                         Standard orientation:
 ---------------------------------------------------------------------
 Center     Atomic      Atomic             Coordinates (Angstroms)
 Number     Number       Type             X           Y           Z
 ---------------------------------------------------------------------
      1          6           0       -1.177987    0.001564    0.010256
      2          6           0        0.273507    0.003637    0.015049
      3          7           0        1.432282   -0.003027   -0.012166
      4          1           0       -1.495388   -0.332085    0.948187
      5          1           0       -1.574577   -0.689267   -0.788285
      6          1           0       -1.529127    1.011335   -0.226574
 ---------------------------------------------------------------------

 SCF Done:  E(RB2PLYPD3) =  -132.532649556     A.U. after   12 cycles
 E2(B2PLYPD3) =    -0.1808627492D+00 E(B2PLYPD3) =    -0.13271351230491D+03

 The electronic state is 1-A.
 Alpha  occ. eigenvalues --  -14.84243 -10.67085 -10.66283  -1.03910  -0.89469
 Alpha  occ. eigenvalues --   -0.59455  -0.55285  -0.53104  -0.44739  -0.38997
 Alpha  occ. eigenvalues --   -0.38756
 Alpha virt. eigenvalues --    0.03706   0.07454   0.08338   0.10163   0.11239
 Alpha virt. eigenvalues --    0.11590   0.15393   0.15991   0.16329   0.20081
 Alpha virt. eigenvalues --    0.20169   0.25421   0.32637   0.33974   0.35104

 Mulliken charges:
               1
     1  C   -0.089269
     2  C   -0.001597
     3  N   -0.209106
     4  H    0.104256
     5  H    0.095307
     6  H    0.100410
 Sum of Mulliken charges =   0.00000

 Dipole moment (field-independent basis, Debye):
    X=             -4.1233    Y=              0.0036    Z=              0.0184  Tot=              4.1233
 Quadrupole moment (field-independent basis, Debye-Ang):
   XX=            -21.1250   YY=            -17.7300   ZZ=            -17.7177
   XY=              0.0381   XZ=              0.1235   YZ=             -0.0672

 Normal termination of Gaussian 09 at Wed Aug 26 09:57:58 2020.
