 Gaussian 09, Revision D.01,
 Gaussian 09:  ES64L-G09RevD.01 24-Apr-2013

 --------------------
 #p B2PLYPD3/Def2QZVP
 --------------------

 ------------
 cyanomethane
 ------------
 Symbolic Z-matrix:
 Charge =  0 Multiplicity = 1

                         Standard orientation:
 ---------------------------------------------------------------------
 Center     Atomic      Atomic             Coordinates (Angstroms)
 Number     Number       Type             X           Y           Z
 ---------------------------------------------------------------------
      1          6           0        1.156845   -0.004428   -0.010612
      2          6           0       -0.294985    0.008621    0.078897
      3          7           0       -1.419426    0.001677   -0.047512
      4          1           0        1.691621    0.978463   -0.345526
      5          1           0        1.591173   -0.803865   -0.660135
      6          1           0        1.482024   -0.211495    0.928536
 ---------------------------------------------------------------------

 SCF Done:  E(RB2PLYPD3) =  -132.522726054     A.U. after   12 cycles
 E2(B2PLYPD3) =    -0.1791341790D+00 E(B2PLYPD3) =    -0.13270186023320D+03

 The electronic state is 1-A.
 Alpha  occ. eigenvalues --  -14.83794 -10.67132 -10.65744  -1.05251  -0.89045
 Alpha  occ. eigenvalues --   -0.60242  -0.54158  -0.51883  -0.44962  -0.39704
 Alpha  occ. eigenvalues --   -0.39601
 Alpha virt. eigenvalues --    0.03350   0.06957   0.08995   0.10003   0.11550
 Alpha virt. eigenvalues --    0.11974   0.15611   0.15761   0.18199   0.19775
 Alpha virt. eigenvalues --    0.20339   0.25944   0.32658   0.34290   0.34693

 Mulliken charges:
               1
     1  C   -0.083120
     2  C    0.002158
     3  N   -0.191134
     4  H    0.087363
     5  H    0.089342
     6  H    0.095392
 Sum of Mulliken charges =   0.00000

 Dipole moment (field-independent basis, Debye):
    X=              4.0600    Y=             -0.0408    Z=              0.1264  Tot=              4.0621
 Quadrupole moment (field-independent basis, Debye-Ang):
   XX=            -20.6546   YY=            -17.7350   ZZ=            -17.8452
   XY=              0.0156   XZ=             -0.2890   YZ=             -0.0151

 Normal termination of Gaussian 09 at Wed Aug 26 23:48:45 2020.
