 Gaussian 09, Revision D.01,
 Gaussian 09:  ES64L-G09RevD.01 24-Apr-2013

 --------------------
 #p B2PLYPD3/Def2QZVP
 --------------------

 ------------
 cyanomethane
 ------------
 Symbolic Z-matrix:
 Charge =  0 Multiplicity = 1

                         Standard orientation:
 ---------------------------------------------------------------------
 Center     Atomic      Atomic             Coordinates (Angstroms)
 Number     Number       Type             X           Y           Z
 ---------------------------------------------------------------------
      1          6           0        1.180881    0.010710    0.000126
      2          6           0       -0.275557   -0.005149   -0.020241
      3          7           0       -1.438691   -0.000753    0.008358
      4          1           0        1.517169    1.031591   -0.039728
      5          1           0        1.589031   -0.584128   -0.818437
      6          1           0        1.532695   -0.475558    0.920347
 ---------------------------------------------------------------------

 SCF Done:  E(RB2PLYPD3) =  -132.534277098     A.U. after   11 cycles
 E2(B2PLYPD3) =    -0.1812387470D+00 E(B2PLYPD3) =    -0.13271551584455D+03

 The electronic state is 1-A.
 Alpha  occ. eigenvalues --  -14.84422 -10.67138 -10.66499  -1.03748  -0.89309
 Alpha  occ. eigenvalues --   -0.59688  -0.54793  -0.53277  -0.44796  -0.38929
 Alpha  occ. eigenvalues --   -0.38727
 Alpha virt. eigenvalues --    0.03742   0.07636   0.07921   0.10171   0.11206
 Alpha virt. eigenvalues --    0.11506   0.15339   0.16113   0.16388   0.20083
 Alpha virt. eigenvalues --    0.20177   0.25359   0.32614   0.34215   0.35012

 Mulliken charges:
               1
     1  C   -0.084176
     2  C   -0.000203
     3  N   -0.210663
     4  H    0.102736
     5  H    0.096072
     6  H    0.096234
 Sum of Mulliken charges =   0.00000

 Dipole moment (field-independent basis, Debye):
    X=              4.1417    Y=             -0.0147    Z=             -0.0019  Tot=              4.1418
 Quadrupole moment (field-independent basis, Debye-Ang):
   XX=            -21.0410   YY=            -17.6513   ZZ=            -17.8878
   XY=             -0.0890   XZ=              0.0299   YZ=              0.0026

 Normal termination of Gaussian 09 at Wed Aug 26 23:42:03 2020.
