 Gaussian 09, Revision D.01,
 Gaussian 09:  ES64L-G09RevD.01 24-Apr-2013

 --------------------
 #p B2PLYPD3/Def2QZVP
 --------------------

 ------------
 cyanomethane
 ------------
 Symbolic Z-matrix:
 Charge =  0 Multiplicity = 1

                         Standard orientation:
 ---------------------------------------------------------------------
 Center     Atomic      Atomic             Coordinates (Angstroms)
 Number     Number       Type             X           Y           Z
 ---------------------------------------------------------------------
      1          6           0       -1.173720   -0.010045    0.007208
      2          6           0        0.297917   -0.047394   -0.030082
      3          7           0        1.441242    0.020041    0.004504
      4          1           0       -1.562453    1.089669   -0.209427
      5          1           0       -1.484677   -0.223490    0.976463
      6          1           0       -1.786744   -0.661838   -0.661317
 ---------------------------------------------------------------------

 SCF Done:  E(RB2PLYPD3) =  -132.524800747     A.U. after   12 cycles
 E2(B2PLYPD3) =    -0.1803782787D+00 E(B2PLYPD3) =    -0.13270517902539D+03

 The electronic state is 1-A.
 Alpha  occ. eigenvalues --  -14.84233 -10.67915 -10.66434  -1.04639  -0.88388
 Alpha  occ. eigenvalues --   -0.60472  -0.53635  -0.51389  -0.44997  -0.39556
 Alpha  occ. eigenvalues --   -0.39205
 Alpha virt. eigenvalues --    0.03397   0.07002   0.08113   0.10304   0.11494
 Alpha virt. eigenvalues --    0.11796   0.15233   0.16299   0.17570   0.19996
 Alpha virt. eigenvalues --    0.20111   0.25163   0.31873   0.33099   0.35470

 Mulliken charges:
               1
     1  C   -0.083181
     2  C    0.007969
     3  N   -0.199781
     4  H    0.085876
     5  H    0.098070
     6  H    0.091048
 Sum of Mulliken charges =   0.00000

 Dipole moment (field-independent basis, Debye):
    X=             -4.1243    Y=             -0.0415    Z=              0.0441  Tot=              4.1248
 Quadrupole moment (field-independent basis, Debye-Ang):
   XX=            -20.6265   YY=            -17.8687   ZZ=            -17.9668
   XY=             -0.0087   XZ=              0.0322   YZ=             -0.0142

 Normal termination of Gaussian 09 at Wed Aug 26 22:28:04 2020.
