 Gaussian 09, Revision D.01,
 Gaussian 09:  ES64L-G09RevD.01 24-Apr-2013

 --------------------
 #p B2PLYPD3/Def2QZVP
 --------------------

 ------------
 cyanomethane
 ------------
 Symbolic Z-matrix:
 Charge =  0 Multiplicity = 1

                         Standard orientation:
 ---------------------------------------------------------------------
 Center     Atomic      Atomic             Coordinates (Angstroms)
 Number     Number       Type             X           Y           Z
 ---------------------------------------------------------------------
      1          6           0       -1.177809    0.005673   -0.003523
      2          6           0        0.283165    0.009075    0.008294
      3          7           0        1.437289   -0.004801   -0.005765
      4          1           0       -1.572649   -0.810306   -0.585251
      5          1           0       -1.582331    0.892046   -0.382234
      6          1           0       -1.538184   -0.136628    0.979208
 ---------------------------------------------------------------------

 SCF Done:  E(RB2PLYPD3) =  -132.533888151     A.U. after   11 cycles
 E2(B2PLYPD3) =    -0.1801149897D+00 E(B2PLYPD3) =    -0.13271400314104D+03

 The electronic state is 1-A.
 Alpha  occ. eigenvalues --  -14.84264 -10.66348 -10.66200  -1.04169  -0.89796
 Alpha  occ. eigenvalues --   -0.60538  -0.54733  -0.53823  -0.44864  -0.39271
 Alpha  occ. eigenvalues --   -0.39130
 Alpha virt. eigenvalues --    0.03880   0.08037   0.08348   0.10200   0.11310
 Alpha virt. eigenvalues --    0.11493   0.15496   0.16327   0.16855   0.20066
 Alpha virt. eigenvalues --    0.20117   0.25290   0.32900   0.34873   0.35454

 Mulliken charges:
               1
     1  C   -0.064421
     2  C    0.000017
     3  N   -0.206178
     4  H    0.088640
     5  H    0.091941
     6  H    0.090001
 Sum of Mulliken charges =   0.00000

 Dipole moment (field-independent basis, Debye):
    X=             -4.1504    Y=              0.0002    Z=              0.0177  Tot=              4.1504
 Quadrupole moment (field-independent basis, Debye-Ang):
   XX=            -20.7427   YY=            -17.7494   ZZ=            -17.7932
   XY=              0.0354   XZ=              0.0406   YZ=             -0.0293

 Normal termination of Gaussian 09 at Wed Aug 26 15:00:13 2020.
