 Gaussian 09, Revision D.01,
 Gaussian 09:  ES64L-G09RevD.01 24-Apr-2013

 --------------------
 #p B2PLYPD3/Def2QZVP
 --------------------

 ------------
 cyanomethane
 ------------
 Symbolic Z-matrix:
 Charge =  0 Multiplicity = 1

                         Standard orientation:
 ---------------------------------------------------------------------
 Center     Atomic      Atomic             Coordinates (Angstroms)
 Number     Number       Type             X           Y           Z
 ---------------------------------------------------------------------
      1          6           0       -1.182793    0.006108    0.001388
      2          6           0        0.277218   -0.011639    0.009843
      3          7           0        1.437356    0.002896   -0.006141
      4          1           0       -1.531835   -0.015624    1.009893
      5          1           0       -1.578332   -0.876083   -0.534722
      6          1           0       -1.517875    0.904625   -0.499568
 ---------------------------------------------------------------------

 SCF Done:  E(RB2PLYPD3) =  -132.534772237     A.U. after   11 cycles
 E2(B2PLYPD3) =    -0.1808943158D+00 E(B2PLYPD3) =    -0.13271566655281D+03

 The electronic state is 1-A.
 Alpha  occ. eigenvalues --  -14.84321 -10.67054 -10.66398  -1.03856  -0.89336
 Alpha  occ. eigenvalues --   -0.59547  -0.54587  -0.53695  -0.44765  -0.38963
 Alpha  occ. eigenvalues --   -0.38884
 Alpha virt. eigenvalues --    0.03764   0.07727   0.08117   0.10183   0.11300
 Alpha virt. eigenvalues --    0.11417   0.15349   0.16108   0.16336   0.20107
 Alpha virt. eigenvalues --    0.20131   0.25284   0.32619   0.34483   0.34872

 Mulliken charges:
               1
     1  C   -0.085230
     2  C   -0.001485
     3  N   -0.209293
     4  H    0.099637
     5  H    0.096140
     6  H    0.100230
 Sum of Mulliken charges =   0.00000

 Dipole moment (field-independent basis, Debye):
    X=             -4.1367    Y=             -0.0003    Z=              0.0130  Tot=              4.1367
 Quadrupole moment (field-independent basis, Debye-Ang):
   XX=            -21.0559   YY=            -17.7475   ZZ=            -17.7489
   XY=              0.0235   XZ=              0.0377   YZ=             -0.0229

 Normal termination of Gaussian 09 at Wed Aug 26 09:47:41 2020.
