 Gaussian 09, Revision D.01,
 Gaussian 09:  ES64L-G09RevD.01 24-Apr-2013

 --------------------
 #p B2PLYPD3/Def2QZVP
 --------------------

 ------------
 cyanomethane
 ------------
 Symbolic Z-matrix:
 Charge =  0 Multiplicity = 1

                         Standard orientation:
 ---------------------------------------------------------------------
 Center     Atomic      Atomic             Coordinates (Angstroms)
 Number     Number       Type             X           Y           Z
 ---------------------------------------------------------------------
      1          6           0       -1.164335    0.015620    0.008140
      2          6           0        0.269497   -0.006206    0.034301
      3          7           0        1.435797    0.003803   -0.021068
      4          1           0       -1.523515   -0.331633    0.956899
      5          1           0       -1.561005   -0.760513   -0.786695
      6          1           0       -1.597031    1.009045   -0.277369
 ---------------------------------------------------------------------

 SCF Done:  E(RB2PLYPD3) =  -132.527286992     A.U. after   12 cycles
 E2(B2PLYPD3) =    -0.1822037449D+00 E(B2PLYPD3) =    -0.13270949073676D+03

 The electronic state is 1-A.
 Alpha  occ. eigenvalues --  -14.84600 -10.67939 -10.66611  -1.03691  -0.89014
 Alpha  occ. eigenvalues --   -0.59926  -0.54522  -0.51961  -0.44920  -0.38766
 Alpha  occ. eigenvalues --   -0.38349
 Alpha virt. eigenvalues --    0.03413   0.06545   0.07687   0.10051   0.11264
 Alpha virt. eigenvalues --    0.11779   0.15478   0.15806   0.16842   0.20077
 Alpha virt. eigenvalues --    0.20234   0.25778   0.32229   0.33232   0.34825

 Mulliken charges:
               1
     1  C   -0.091885
     2  C    0.004443
     3  N   -0.211126
     4  H    0.103005
     5  H    0.092486
     6  H    0.103076
 Sum of Mulliken charges =   0.00000

 Dipole moment (field-independent basis, Debye):
    X=             -4.1220    Y=             -0.0169    Z=              0.0378  Tot=              4.1222
 Quadrupole moment (field-independent basis, Debye-Ang):
   XX=            -21.0657   YY=            -17.7819   ZZ=            -17.8729
   XY=             -0.0206   XZ=              0.1382   YZ=             -0.0978

 Normal termination of Gaussian 09 at Wed Aug 26 15:49:25 2020.
