 Gaussian 09, Revision D.01,
 Gaussian 09:  ES64L-G09RevD.01 24-Apr-2013

 --------------------
 #p B2PLYPD3/Def2QZVP
 --------------------

 ------------
 cyanomethane
 ------------
 Symbolic Z-matrix:
 Charge =  0 Multiplicity = 1

                         Standard orientation:
 ---------------------------------------------------------------------
 Center     Atomic      Atomic             Coordinates (Angstroms)
 Number     Number       Type             X           Y           Z
 ---------------------------------------------------------------------
      1          6           0       -1.148824   -0.003215   -0.036675
      2          6           0        0.254483   -0.063913    0.022892
      3          7           0        1.426734    0.034023   -0.004276
      4          1           0       -1.590517    0.089191    0.992007
      5          1           0       -1.510583   -0.836709   -0.413255
      6          1           0       -1.519990    0.912130   -0.466121
 ---------------------------------------------------------------------

 SCF Done:  E(RB2PLYPD3) =  -132.518894636     A.U. after   12 cycles
 E2(B2PLYPD3) =    -0.1824005062D+00 E(B2PLYPD3) =    -0.13270129514229D+03

 The electronic state is 1-A.
 Alpha  occ. eigenvalues --  -14.84784 -10.66654 -10.65739  -1.03465  -0.90915
 Alpha  occ. eigenvalues --   -0.61542  -0.57230  -0.52264  -0.44982  -0.38680
 Alpha  occ. eigenvalues --   -0.37965
 Alpha virt. eigenvalues --    0.03634   0.06639   0.08254   0.09964   0.10948
 Alpha virt. eigenvalues --    0.11943   0.15525   0.16133   0.17097   0.20051
 Alpha virt. eigenvalues --    0.20372   0.26471   0.32650   0.34218   0.35765

 Mulliken charges:
               1
     1  C   -0.063416
     2  C    0.006986
     3  N   -0.217614
     4  H    0.077569
     5  H    0.100295
     6  H    0.096180
 Sum of Mulliken charges =   0.00000

 Dipole moment (field-independent basis, Debye):
    X=             -4.1537    Y=             -0.0201    Z=              0.0431  Tot=              4.1539
 Quadrupole moment (field-independent basis, Debye-Ang):
   XX=            -20.7870   YY=            -17.5416   ZZ=            -18.0375
   XY=             -0.2288   XZ=             -0.1387   YZ=              0.0736

 Normal termination of Gaussian 09 at Wed Aug 26 22:51:38 2020.
