 Gaussian 09, Revision D.01,
 Gaussian 09:  ES64L-G09RevD.01 24-Apr-2013

 --------------------
 #p B2PLYPD3/Def2QZVP
 --------------------

 ------------
 cyanomethane
 ------------
 Symbolic Z-matrix:
 Charge =  0 Multiplicity = 1

                         Standard orientation:
 ---------------------------------------------------------------------
 Center     Atomic      Atomic             Coordinates (Angstroms)
 Number     Number       Type             X           Y           Z
 ---------------------------------------------------------------------
      1          6           0        1.177861    0.032787    0.027911
      2          6           0       -0.263020   -0.024116   -0.059648
      3          7           0       -1.427181    0.003468    0.018491
      4          1           0        1.455134    1.011515   -0.198210
      5          1           0        1.650958   -0.740221   -0.703007
      6          1           0        1.395129   -0.347595    0.962207
 ---------------------------------------------------------------------

 SCF Done:  E(RB2PLYPD3) =  -132.523782742     A.U. after   12 cycles
 E2(B2PLYPD3) =    -0.1816178515D+00 E(B2PLYPD3) =    -0.13270540059372D+03

 The electronic state is 1-A.
 Alpha  occ. eigenvalues --  -14.84354 -10.66781 -10.66367  -1.03617  -0.90068
 Alpha  occ. eigenvalues --   -0.59064  -0.57240  -0.52546  -0.44670  -0.38850
 Alpha  occ. eigenvalues --   -0.38317
 Alpha virt. eigenvalues --    0.03739   0.07119   0.08457   0.10127   0.10999
 Alpha virt. eigenvalues --    0.11688   0.15102   0.15717   0.16286   0.20084
 Alpha virt. eigenvalues --    0.20202   0.25796   0.31599   0.34387   0.35765

 Mulliken charges:
               1
     1  C   -0.093695
     2  C    0.000726
     3  N   -0.215361
     4  H    0.112240
     5  H    0.087378
     6  H    0.108712
 Sum of Mulliken charges =   0.00000

 Dipole moment (field-independent basis, Debye):
    X=              4.1053    Y=             -0.0228    Z=              0.0082  Tot=              4.1054
 Quadrupole moment (field-independent basis, Debye-Ang):
   XX=            -21.2898   YY=            -17.5049   ZZ=            -17.8766
   XY=             -0.1376   XZ=             -0.0053   YZ=             -0.1585

 Normal termination of Gaussian 09 at Wed Aug 26 22:41:13 2020.
