 Gaussian 09, Revision D.01,
 Gaussian 09:  ES64L-G09RevD.01 24-Apr-2013

 --------------------
 #p B2PLYPD3/Def2QZVP
 --------------------

 ------------
 cyanomethane
 ------------
 Symbolic Z-matrix:
 Charge =  0 Multiplicity = 1

                         Standard orientation:
 ---------------------------------------------------------------------
 Center     Atomic      Atomic             Coordinates (Angstroms)
 Number     Number       Type             X           Y           Z
 ---------------------------------------------------------------------
      1          6           0       -1.176953    0.019701   -0.007931
      2          6           0        0.274404    0.030567   -0.001446
      3          7           0        1.438351   -0.021692    0.003116
      4          1           0       -1.504920    1.031754    0.015159
      5          1           0       -1.591791   -0.592187    0.909764
      6          1           0       -1.556452   -0.589336   -0.890469
 ---------------------------------------------------------------------

 SCF Done:  E(RB2PLYPD3) =  -132.526122208     A.U. after   12 cycles
 E2(B2PLYPD3) =    -0.1820183363D+00 E(B2PLYPD3) =    -0.13270814054390D+03

 The electronic state is 1-A.
 Alpha  occ. eigenvalues --  -14.84488 -10.68217 -10.66548  -1.03707  -0.88707
 Alpha  occ. eigenvalues --   -0.59199  -0.55200  -0.51432  -0.44820  -0.38914
 Alpha  occ. eigenvalues --   -0.38380
 Alpha virt. eigenvalues --    0.03394   0.06576   0.07967   0.10111   0.11035
 Alpha virt. eigenvalues --    0.11838   0.15232   0.16185   0.16239   0.19994
 Alpha virt. eigenvalues --    0.20252   0.25412   0.32074   0.32922   0.34932

 Mulliken charges:
               1
     1  C   -0.097702
     2  C    0.001941
     3  N   -0.210099
     4  H    0.110864
     5  H    0.094249
     6  H    0.100746
 Sum of Mulliken charges =   0.00000

 Dipole moment (field-independent basis, Debye):
    X=             -4.1166    Y=              0.0061    Z=             -0.0095  Tot=              4.1166
 Quadrupole moment (field-independent basis, Debye-Ang):
   XX=            -21.2011   YY=            -17.5854   ZZ=            -18.0163
   XY=              0.2453   XZ=             -0.0380   YZ=              0.0464

 Normal termination of Gaussian 09 at Wed Aug 26 15:56:17 2020.
