 Gaussian 09, Revision D.01,
 Gaussian 09:  ES64L-G09RevD.01 24-Apr-2013

 --------------------
 #p B2PLYPD3/Def2QZVP
 --------------------

 ------------
 cyanomethane
 ------------
 Symbolic Z-matrix:
 Charge =  0 Multiplicity = 1

                         Standard orientation:
 ---------------------------------------------------------------------
 Center     Atomic      Atomic             Coordinates (Angstroms)
 Number     Number       Type             X           Y           Z
 ---------------------------------------------------------------------
      1          6           0        1.178376    0.011656   -0.003811
      2          6           0       -0.285150   -0.024603   -0.001125
      3          7           0       -1.435607    0.010559    0.001383
      4          1           0        1.547597    1.034799    0.000832
      5          1           0        1.566775   -0.520665   -0.862204
      6          1           0        1.575518   -0.510360    0.881304
 ---------------------------------------------------------------------

 SCF Done:  E(RB2PLYPD3) =  -132.535561258     A.U. after   11 cycles
 E2(B2PLYPD3) =    -0.1802024909D+00 E(B2PLYPD3) =    -0.13271576374900D+03

 The electronic state is 1-A.
 Alpha  occ. eigenvalues --  -14.84150 -10.67198 -10.66228  -1.04274  -0.89019
 Alpha  occ. eigenvalues --   -0.59796  -0.54165  -0.53246  -0.44817  -0.39271
 Alpha  occ. eigenvalues --   -0.39127
 Alpha virt. eigenvalues --    0.03737   0.07846   0.08044   0.10187   0.11413
 Alpha virt. eigenvalues --    0.11555   0.15381   0.16193   0.16754   0.20040
 Alpha virt. eigenvalues --    0.20081   0.25292   0.32703   0.34402   0.34935

 Mulliken charges:
               1
     1  C   -0.080850
     2  C   -0.001308
     3  N   -0.203772
     4  H    0.098693
     5  H    0.094896
     6  H    0.092342
 Sum of Mulliken charges =   0.00000

 Dipole moment (field-independent basis, Debye):
    X=              4.1272    Y=             -0.0274    Z=             -0.0014  Tot=              4.1273
 Quadrupole moment (field-independent basis, Debye-Ang):
   XX=            -20.9227   YY=            -17.6918   ZZ=            -17.8507
   XY=              0.0065   XZ=              0.0175   YZ=              0.0182

 Normal termination of Gaussian 09 at Thu Aug 27 00:13:56 2020.
