 Gaussian 09, Revision D.01,
 Gaussian 09:  ES64L-G09RevD.01 24-Apr-2013

 --------------------
 #p B2PLYPD3/Def2QZVP
 --------------------

 ------------
 cyanomethane
 ------------
 Symbolic Z-matrix:
 Charge =  0 Multiplicity = 1

                         Standard orientation:
 ---------------------------------------------------------------------
 Center     Atomic      Atomic             Coordinates (Angstroms)
 Number     Number       Type             X           Y           Z
 ---------------------------------------------------------------------
      1          6           0       -1.169857    0.010483    0.000504
      2          6           0        0.274046    0.014319   -0.009208
      3          7           0        1.432958   -0.014075    0.005900
      4          1           0       -1.477643    1.010427   -0.086234
      5          1           0       -1.597041   -0.448178    0.900394
      6          1           0       -1.581159   -0.612536   -0.803236
 ---------------------------------------------------------------------

 SCF Done:  E(RB2PLYPD3) =  -132.532729772     A.U. after   12 cycles
 E2(B2PLYPD3) =    -0.1808561696D+00 E(B2PLYPD3) =    -0.13271358594160D+03

 The electronic state is 1-A.
 Alpha  occ. eigenvalues --  -14.84335 -10.66733 -10.66358  -1.03977  -0.89683
 Alpha  occ. eigenvalues --   -0.60304  -0.55349  -0.52785  -0.44846  -0.39035
 Alpha  occ. eigenvalues --   -0.38765
 Alpha virt. eigenvalues --    0.03771   0.07375   0.08241   0.10140   0.11224
 Alpha virt. eigenvalues --    0.11707   0.15445   0.16267   0.16638   0.20031
 Alpha virt. eigenvalues --    0.20220   0.25599   0.32860   0.34289   0.35218

 Mulliken charges:
               1
     1  C   -0.075832
     2  C    0.000250
     3  N   -0.208818
     4  H    0.101101
     5  H    0.091338
     6  H    0.091961
 Sum of Mulliken charges =   0.00000

 Dipole moment (field-independent basis, Debye):
    X=             -4.1379    Y=              0.0024    Z=             -0.0044  Tot=              4.1379
 Quadrupole moment (field-independent basis, Debye-Ang):
   XX=            -20.9076   YY=            -17.6091   ZZ=            -17.9335
   XY=              0.2208   XZ=             -0.0619   YZ=             -0.0082

 Normal termination of Gaussian 09 at Thu Aug 27 00:08:05 2020.
