 Gaussian 09, Revision D.01,
 Gaussian 09:  ES64L-G09RevD.01 24-Apr-2013

 --------------------
 #p B2PLYPD3/Def2QZVP
 --------------------

 ------------
 cyanomethane
 ------------
 Symbolic Z-matrix:
 Charge =  0 Multiplicity = 1

                         Standard orientation:
 ---------------------------------------------------------------------
 Center     Atomic      Atomic             Coordinates (Angstroms)
 Number     Number       Type             X           Y           Z
 ---------------------------------------------------------------------
      1          6           0        1.149271   -0.013846    0.008914
      2          6           0       -0.256495    0.023153   -0.070005
      3          7           0       -1.431224   -0.002067    0.031426
      4          1           0        1.669801    1.055252   -0.159640
      5          1           0        1.523076   -0.752852   -0.695809
      6          1           0        1.469032   -0.343771    1.002009
 ---------------------------------------------------------------------

 SCF Done:  E(RB2PLYPD3) =  -132.522171282     A.U. after   12 cycles
 E2(B2PLYPD3) =    -0.1833971856D+00 E(B2PLYPD3) =    -0.13270556846762D+03

 The electronic state is 1-A.
 Alpha  occ. eigenvalues --  -14.84915 -10.67759 -10.66816  -1.03359  -0.89482
 Alpha  occ. eigenvalues --   -0.60444  -0.54173  -0.52366  -0.45015  -0.38270
 Alpha  occ. eigenvalues --   -0.38059
 Alpha virt. eigenvalues --    0.03410   0.05964   0.07201   0.09963   0.11314
 Alpha virt. eigenvalues --    0.11782   0.15662   0.15938   0.16577   0.20138
 Alpha virt. eigenvalues --    0.20227   0.26398   0.31569   0.34194   0.34420

 Mulliken charges:
               1
     1  C   -0.089877
     2  C    0.008771
     3  N   -0.216437
     4  H    0.093689
     5  H    0.101406
     6  H    0.102448
 Sum of Mulliken charges =   0.00000

 Dipole moment (field-independent basis, Debye):
    X=              4.1108    Y=             -0.0512    Z=              0.0034  Tot=              4.1111
 Quadrupole moment (field-independent basis, Debye-Ang):
   XX=            -21.0691   YY=            -17.7194   ZZ=            -17.9687
   XY=              0.0167   XZ=              0.1912   YZ=              0.0523

 Normal termination of Gaussian 09 at Wed Aug 26 19:08:19 2020.
