 Gaussian 09, Revision D.01,
 Gaussian 09:  ES64L-G09RevD.01 24-Apr-2013

 --------------------
 #p B2PLYPD3/Def2QZVP
 --------------------

 ------------
 cyanomethane
 ------------
 Symbolic Z-matrix:
 Charge =  0 Multiplicity = 1

                         Standard orientation:
 ---------------------------------------------------------------------
 Center     Atomic      Atomic             Coordinates (Angstroms)
 Number     Number       Type             X           Y           Z
 ---------------------------------------------------------------------
      1          6           0       -1.184595   -0.001620    0.013666
      2          6           0        0.280606   -0.009574   -0.019772
      3          7           0        1.423847    0.004552    0.008255
      4          1           0       -1.511274    0.917048   -0.432705
      5          1           0       -1.504290   -0.071433    0.986675
      6          1           0       -1.527427   -0.810311   -0.575121
 ---------------------------------------------------------------------

 SCF Done:  E(RB2PLYPD3) =  -132.533341235     A.U. after   11 cycles
 E2(B2PLYPD3) =    -0.1790572095D+00 E(B2PLYPD3) =    -0.13271239844404D+03

 The electronic state is 1-A.
 Alpha  occ. eigenvalues --  -14.83743 -10.66035 -10.65773  -1.04460  -0.90037
 Alpha  occ. eigenvalues --   -0.59341  -0.55635  -0.54468  -0.44603  -0.39451
 Alpha  occ. eigenvalues --   -0.39285
 Alpha virt. eigenvalues --    0.03947   0.08631   0.08801   0.10223   0.11357
 Alpha virt. eigenvalues --    0.11529   0.15420   0.15958   0.16418   0.20042
 Alpha virt. eigenvalues --    0.20091   0.25210   0.33020   0.34759   0.35602

 Mulliken charges:
               1
     1  C   -0.081405
     2  C   -0.007167
     3  N   -0.202516
     4  H    0.095143
     5  H    0.100064
     6  H    0.095881
 Sum of Mulliken charges =   0.00000

 Dipole moment (field-independent basis, Debye):
    X=             -4.1127    Y=             -0.0044    Z=             -0.0170  Tot=              4.1128
 Quadrupole moment (field-independent basis, Debye-Ang):
   XX=            -21.0624   YY=            -17.6542   ZZ=            -17.5859
   XY=             -0.0205   XZ=             -0.0214   YZ=              0.0040

 Normal termination of Gaussian 09 at Wed Aug 26 14:52:58 2020.
