 Gaussian 09, Revision D.01,
 Gaussian 09:  ES64L-G09RevD.01 24-Apr-2013

 --------------------
 #p B2PLYPD3/Def2QZVP
 --------------------

 ------------
 cyanomethane
 ------------
 Symbolic Z-matrix:
 Charge =  0 Multiplicity = 1

                         Standard orientation:
 ---------------------------------------------------------------------
 Center     Atomic      Atomic             Coordinates (Angstroms)
 Number     Number       Type             X           Y           Z
 ---------------------------------------------------------------------
      1          6           0       -1.162525    0.012947   -0.026417
      2          6           0        0.272832    0.053715   -0.031142
      3          7           0        1.451835   -0.037850    0.018546
      4          1           0       -1.517468    0.971826   -0.312635
      5          1           0       -1.609093   -0.199964    1.131423
      6          1           0       -1.698125   -0.906882   -0.603247
 ---------------------------------------------------------------------

 SCF Done:  E(RB2PLYPD3) =  -132.504468603     A.U. after   12 cycles
 E2(B2PLYPD3) =    -0.1848575373D+00 E(B2PLYPD3) =    -0.13268932614004D+03

 The electronic state is 1-A.
 Alpha  occ. eigenvalues --  -14.85308 -10.69420 -10.67336  -1.03224  -0.88166
 Alpha  occ. eigenvalues --   -0.59885  -0.54239  -0.49530  -0.45192  -0.38550
 Alpha  occ. eigenvalues --   -0.37694
 Alpha virt. eigenvalues --    0.02614   0.04681   0.07362   0.09865   0.10936
 Alpha virt. eigenvalues --    0.12037   0.15290   0.15941   0.17244   0.19958
 Alpha virt. eigenvalues --    0.20470   0.25750   0.30803   0.31693   0.34253

 Mulliken charges:
               1
     1  C   -0.098593
     2  C    0.011475
     3  N   -0.212953
     4  H    0.111206
     5  H    0.087468
     6  H    0.101397
 Sum of Mulliken charges =   0.00000

 Dipole moment (field-independent basis, Debye):
    X=             -4.1158    Y=              0.0494    Z=             -0.0146  Tot=              4.1161
 Quadrupole moment (field-independent basis, Debye-Ang):
   XX=            -20.9805   YY=            -17.7801   ZZ=            -18.2601
   XY=              0.3449   XZ=             -0.1363   YZ=             -0.0418

 Normal termination of Gaussian 09 at Wed Aug 26 22:32:41 2020.
