 Gaussian 09, Revision D.01,
 Gaussian 09:  ES64L-G09RevD.01 24-Apr-2013

 --------------------
 #p B2PLYPD3/Def2QZVP
 --------------------

 ------------
 cyanomethane
 ------------
 Symbolic Z-matrix:
 Charge =  0 Multiplicity = 1

                         Standard orientation:
 ---------------------------------------------------------------------
 Center     Atomic      Atomic             Coordinates (Angstroms)
 Number     Number       Type             X           Y           Z
 ---------------------------------------------------------------------
      1          6           0       -1.180613   -0.004292    0.006530
      2          6           0        0.282336    0.024769   -0.002579
      3          7           0        1.429152   -0.011332    0.000469
      4          1           0       -1.532024   -0.229492    1.006608
      5          1           0       -1.527791   -0.802849   -0.699704
      6          1           0       -1.554585    0.988800   -0.333899
 ---------------------------------------------------------------------

 SCF Done:  E(RB2PLYPD3) =  -132.534629282     A.U. after   11 cycles
 E2(B2PLYPD3) =    -0.1800606700D+00 E(B2PLYPD3) =    -0.13271468995190D+03

 The electronic state is 1-A.
 Alpha  occ. eigenvalues --  -14.83925 -10.67690 -10.65988  -1.04345  -0.88774
 Alpha  occ. eigenvalues --   -0.58975  -0.54031  -0.53362  -0.44683  -0.39226
 Alpha  occ. eigenvalues --   -0.39116
 Alpha virt. eigenvalues --    0.03659   0.07812   0.08075   0.10185   0.11483
 Alpha virt. eigenvalues --    0.11617   0.15303   0.16074   0.16317   0.20032
 Alpha virt. eigenvalues --    0.20081   0.25257   0.32576   0.34012   0.34617

 Mulliken charges:
               1
     1  C   -0.098291
     2  C   -0.003151
     3  N   -0.202418
     4  H    0.103191
     5  H    0.100397
     6  H    0.100273
 Sum of Mulliken charges =   0.00000

 Dipole moment (field-independent basis, Debye):
    X=             -4.0993    Y=              0.0097    Z=              0.0047  Tot=              4.0993
 Quadrupole moment (field-independent basis, Debye-Ang):
   XX=            -21.1908   YY=            -17.6872   ZZ=            -17.7232
   XY=              0.0595   XZ=             -0.0103   YZ=             -0.0186

 Normal termination of Gaussian 09 at Thu Aug 27 00:08:11 2020.
