 Gaussian 09, Revision D.01,
 Gaussian 09:  ES64L-G09RevD.01 24-Apr-2013

 --------------------
 #p B2PLYPD3/Def2QZVP
 --------------------

 ------------
 cyanomethane
 ------------
 Symbolic Z-matrix:
 Charge =  0 Multiplicity = 1

                         Standard orientation:
 ---------------------------------------------------------------------
 Center     Atomic      Atomic             Coordinates (Angstroms)
 Number     Number       Type             X           Y           Z
 ---------------------------------------------------------------------
      1          6           0        1.209454   -0.002660   -0.005008
      2          6           0       -0.294001    0.050070   -0.018173
      3          7           0       -1.438320   -0.013194    0.006972
      4          1           0        1.418561   -0.823104   -0.593274
      5          1           0        1.447783   -0.244505    0.964952
      6          1           0        1.709180    0.875506   -0.281400
 ---------------------------------------------------------------------

 SCF Done:  E(RB2PLYPD3) =  -132.527109007     A.U. after   12 cycles
 E2(B2PLYPD3) =    -0.1792608112D+00 E(B2PLYPD3) =    -0.13270636981810D+03

 The electronic state is 1-A.
 Alpha  occ. eigenvalues --  -14.83875 -10.66093 -10.65951  -1.04309  -0.89937
 Alpha  occ. eigenvalues --   -0.59183  -0.55466  -0.54730  -0.44570  -0.39591
 Alpha  occ. eigenvalues --   -0.39360
 Alpha virt. eigenvalues --    0.03943   0.08662   0.09242   0.10429   0.11059
 Alpha virt. eigenvalues --    0.11449   0.15009   0.15591   0.16980   0.19972
 Alpha virt. eigenvalues --    0.20142   0.24484   0.32417   0.35139   0.36149

 Mulliken charges:
               1
     1  C   -0.082013
     2  C   -0.005931
     3  N   -0.203746
     4  H    0.099816
     5  H    0.095698
     6  H    0.096177
 Sum of Mulliken charges =   0.00000

 Dipole moment (field-independent basis, Debye):
    X=              4.1575    Y=             -0.0138    Z=              0.0225  Tot=              4.1575
 Quadrupole moment (field-independent basis, Debye-Ang):
   XX=            -20.9035   YY=            -17.5724   ZZ=            -17.7922
   XY=              0.0777   XZ=              0.0677   YZ=              0.0168

 Normal termination of Gaussian 09 at Wed Aug 26 22:09:16 2020.
