 Gaussian 09, Revision D.01,
 Gaussian 09:  ES64L-G09RevD.01 24-Apr-2013

 --------------------
 #p B2PLYPD3/Def2QZVP
 --------------------

 ------------
 cyanomethane
 ------------
 Symbolic Z-matrix:
 Charge =  0 Multiplicity = 1

                         Standard orientation:
 ---------------------------------------------------------------------
 Center     Atomic      Atomic             Coordinates (Angstroms)
 Number     Number       Type             X           Y           Z
 ---------------------------------------------------------------------
      1          6           0        1.180726    0.010554   -0.004081
      2          6           0       -0.282884   -0.024588   -0.032893
      3          7           0       -1.410019    0.013056    0.028169
      4          1           0        1.646003   -0.079384    0.939706
      5          1           0        1.440479    0.961744   -0.403256
      6          1           0        1.396605   -0.889547   -0.511787
 ---------------------------------------------------------------------

 SCF Done:  E(RB2PLYPD3) =  -132.526022075     A.U. after   12 cycles
 E2(B2PLYPD3) =    -0.1783070385D+00 E(B2PLYPD3) =    -0.13270432911358D+03

 The electronic state is 1-A.
 Alpha  occ. eigenvalues --  -14.83270 -10.66178 -10.65295  -1.05028  -0.90010
 Alpha  occ. eigenvalues --   -0.59602  -0.56763  -0.52484  -0.44498  -0.39764
 Alpha  occ. eigenvalues --   -0.39370
 Alpha virt. eigenvalues --    0.03895   0.08105   0.09306   0.10240   0.11643
 Alpha virt. eigenvalues --    0.11832   0.15250   0.15544   0.17119   0.19945
 Alpha virt. eigenvalues --    0.20103   0.25343   0.33249   0.34122   0.35613

 Mulliken charges:
               1
     1  C   -0.093178
     2  C   -0.006524
     3  N   -0.195268
     4  H    0.088960
     5  H    0.104774
     6  H    0.101236
 Sum of Mulliken charges =   0.00000

 Dipole moment (field-independent basis, Debye):
    X=              4.0633    Y=             -0.0369    Z=             -0.0012  Tot=              4.0634
 Quadrupole moment (field-independent basis, Debye-Ang):
   XX=            -21.1571   YY=            -17.2274   ZZ=            -17.9192
   XY=              0.0590   XZ=              0.4513   YZ=             -0.0079

 Normal termination of Gaussian 09 at Wed Aug 26 23:43:02 2020.
