 Gaussian 09, Revision D.01,
 Gaussian 09:  ES64L-G09RevD.01 24-Apr-2013

 --------------------
 #p B2PLYPD3/Def2QZVP
 --------------------

 ------------
 cyanomethane
 ------------
 Symbolic Z-matrix:
 Charge =  0 Multiplicity = 1

                         Standard orientation:
 ---------------------------------------------------------------------
 Center     Atomic      Atomic             Coordinates (Angstroms)
 Number     Number       Type             X           Y           Z
 ---------------------------------------------------------------------
      1          6           0       -1.199598    0.005901    0.029251
      2          6           0        0.290015    0.010883   -0.054968
      3          7           0        1.437937   -0.008576    0.023832
      4          1           0       -1.509341   -0.130675    1.039768
      5          1           0       -1.576450   -0.916065   -0.623545
      6          1           0       -1.522274    1.006067   -0.428751
 ---------------------------------------------------------------------

 SCF Done:  E(RB2PLYPD3) =  -132.524694831     A.U. after   12 cycles
 E2(B2PLYPD3) =    -0.1809189686D+00 E(B2PLYPD3) =    -0.13270561379975D+03

 The electronic state is 1-A.
 Alpha  occ. eigenvalues --  -14.84043 -10.68842 -10.66181  -1.04149  -0.87803
 Alpha  occ. eigenvalues --   -0.58295  -0.53833  -0.52092  -0.44620  -0.39234
 Alpha  occ. eigenvalues --   -0.38958
 Alpha virt. eigenvalues --    0.03380   0.07351   0.07903   0.10098   0.11306
 Alpha virt. eigenvalues --    0.11564   0.14979   0.15606   0.16360   0.19993
 Alpha virt. eigenvalues --    0.20072   0.24939   0.31397   0.32957   0.34509

 Mulliken charges:
               1
     1  C   -0.116744
     2  C    0.000028
     3  N   -0.203312
     4  H    0.113488
     5  H    0.099212
     6  H    0.107327
 Sum of Mulliken charges =   0.00000

 Dipole moment (field-independent basis, Debye):
    X=             -4.0773    Y=              0.0115    Z=             -0.0073  Tot=              4.0773
 Quadrupole moment (field-independent basis, Debye-Ang):
   XX=            -21.4461   YY=            -17.6621   ZZ=            -17.7831
   XY=              0.0964   XZ=             -0.1531   YZ=             -0.0643

 Normal termination of Gaussian 09 at Wed Aug 26 19:44:26 2020.
