 Gaussian 09, Revision D.01,
 Gaussian 09:  ES64L-G09RevD.01 24-Apr-2013

 --------------------
 #p B2PLYPD3/Def2QZVP
 --------------------

 ------------
 cyanomethane
 ------------
 Symbolic Z-matrix:
 Charge =  0 Multiplicity = 1

                         Standard orientation:
 ---------------------------------------------------------------------
 Center     Atomic      Atomic             Coordinates (Angstroms)
 Number     Number       Type             X           Y           Z
 ---------------------------------------------------------------------
      1          6           0        1.171928    0.001454    0.016789
      2          6           0       -0.275126   -0.006347   -0.020073
      3          7           0       -1.438203    0.003550    0.008100
      4          1           0        1.568267    1.033618   -0.138968
      5          1           0        1.565342   -0.627136   -0.815054
      6          1           0        1.552997   -0.401976    0.917027
 ---------------------------------------------------------------------

 SCF Done:  E(RB2PLYPD3) =  -132.532955036     A.U. after   11 cycles
 E2(B2PLYPD3) =    -0.1813771679D+00 E(B2PLYPD3) =    -0.13271433220358D+03

 The electronic state is 1-A.
 Alpha  occ. eigenvalues --  -14.84495 -10.67244 -10.66547  -1.03822  -0.89255
 Alpha  occ. eigenvalues --   -0.60225  -0.54254  -0.53064  -0.44892  -0.38921
 Alpha  occ. eigenvalues --   -0.38706
 Alpha virt. eigenvalues --    0.03705   0.07395   0.07685   0.10115   0.11365
 Alpha virt. eigenvalues --    0.11529   0.15465   0.16066   0.16752   0.20124
 Alpha virt. eigenvalues --    0.20138   0.25563   0.32584   0.33977   0.35013

 Mulliken charges:
               1
     1  C   -0.080527
     2  C    0.002201
     3  N   -0.209901
     4  H    0.096139
     5  H    0.092168
     6  H    0.099920
 Sum of Mulliken charges =   0.00000

 Dipole moment (field-independent basis, Debye):
    X=              4.1379    Y=             -0.0185    Z=             -0.0102  Tot=              4.1379
 Quadrupole moment (field-independent basis, Debye-Ang):
   XX=            -20.9450   YY=            -17.7689   ZZ=            -17.8462
   XY=             -0.0074   XZ=              0.0298   YZ=             -0.0482

 Normal termination of Gaussian 09 at Thu Aug 27 00:04:52 2020.
