 Gaussian 09, Revision D.01,
 Gaussian 09:  ES64L-G09RevD.01 24-Apr-2013

 --------------------
 #p B2PLYPD3/Def2QZVP
 --------------------

 ------------
 cyanomethane
 ------------
 Symbolic Z-matrix:
 Charge =  0 Multiplicity = 1

                         Standard orientation:
 ---------------------------------------------------------------------
 Center     Atomic      Atomic             Coordinates (Angstroms)
 Number     Number       Type             X           Y           Z
 ---------------------------------------------------------------------
      1          6           0       -1.184412    0.005730    0.000215
      2          6           0        0.274530   -0.012332    0.019737
      3          7           0        1.439585    0.007160   -0.010882
      4          1           0       -1.524596   -0.487299    0.906588
      5          1           0       -1.536259   -0.566701   -0.891340
      6          1           0       -1.556949    1.043488   -0.058789
 ---------------------------------------------------------------------

 SCF Done:  E(RB2PLYPD3) =  -132.533288783     A.U. after   12 cycles
 E2(B2PLYPD3) =    -0.1816017886D+00 E(B2PLYPD3) =    -0.13271489057167D+03

 The electronic state is 1-A.
 Alpha  occ. eigenvalues --  -14.84449 -10.67607 -10.66536  -1.03633  -0.89011
 Alpha  occ. eigenvalues --   -0.59202  -0.54252  -0.53479  -0.44758  -0.38781
 Alpha  occ. eigenvalues --   -0.38684
 Alpha virt. eigenvalues --    0.03646   0.07432   0.07881   0.10142   0.11249
 Alpha virt. eigenvalues --    0.11418   0.15285   0.15810   0.16375   0.20114
 Alpha virt. eigenvalues --    0.20170   0.25304   0.32470   0.34079   0.34561

 Mulliken charges:
               1
     1  C   -0.094429
     2  C    0.000056
     3  N   -0.211501
     4  H    0.102646
     5  H    0.100433
     6  H    0.102795
 Sum of Mulliken charges =   0.00000

 Dipole moment (field-independent basis, Debye):
    X=             -4.1320    Y=             -0.0152    Z=              0.0144  Tot=              4.1321
 Quadrupole moment (field-independent basis, Debye-Ang):
   XX=            -21.1841   YY=            -17.7412   ZZ=            -17.7830
   XY=             -0.0462   XZ=              0.0691   YZ=             -0.0230

 Normal termination of Gaussian 09 at Wed Aug 26 22:10:10 2020.
