 Gaussian 09, Revision D.01,
 Gaussian 09:  ES64L-G09RevD.01 24-Apr-2013

 --------------------
 #p B2PLYPD3/Def2QZVP
 --------------------

 ------------
 cyanomethane
 ------------
 Symbolic Z-matrix:
 Charge =  0 Multiplicity = 1

                         Standard orientation:
 ---------------------------------------------------------------------
 Center     Atomic      Atomic             Coordinates (Angstroms)
 Number     Number       Type             X           Y           Z
 ---------------------------------------------------------------------
      1          6           0       -1.164434   -0.023498    0.037602
      2          6           0        0.276755   -0.025272   -0.076115
      3          7           0        1.417638    0.014984    0.035160
      4          1           0       -1.519889    0.171123    0.990199
      5          1           0       -1.547118   -0.871976   -0.405474
      6          1           0       -1.530382    0.888577   -0.599765
 ---------------------------------------------------------------------

 SCF Done:  E(RB2PLYPD3) =  -132.525568130     A.U. after   12 cycles
 E2(B2PLYPD3) =    -0.1799767728D+00 E(B2PLYPD3) =    -0.13270554490308D+03

 The electronic state is 1-A.
 Alpha  occ. eigenvalues --  -14.83987 -10.66598 -10.65925  -1.04506  -0.89720
 Alpha  occ. eigenvalues --   -0.60260  -0.56244  -0.52061  -0.44817  -0.39493
 Alpha  occ. eigenvalues --   -0.38781
 Alpha virt. eigenvalues --    0.03635   0.07325   0.08639   0.09993   0.11250
 Alpha virt. eigenvalues --    0.11999   0.15514   0.15697   0.17263   0.19948
 Alpha virt. eigenvalues --    0.20164   0.26071   0.31931   0.34091   0.36037

 Mulliken charges:
               1
     1  C   -0.083517
     2  C    0.002956
     3  N   -0.203138
     4  H    0.101905
     5  H    0.099711
     6  H    0.082083
 Sum of Mulliken charges =   0.00000

 Dipole moment (field-independent basis, Debye):
    X=             -4.0667    Y=             -0.0130    Z=             -0.0468  Tot=              4.0670
 Quadrupole moment (field-independent basis, Debye-Ang):
   XX=            -21.0124   YY=            -17.6992   ZZ=            -17.6944
   XY=             -0.0980   XZ=             -0.1816   YZ=              0.1344

 Normal termination of Gaussian 09 at Wed Aug 26 22:24:40 2020.
