 Gaussian 09, Revision D.01,
 Gaussian 09:  ES64L-G09RevD.01 24-Apr-2013

 --------------------
 #p B2PLYPD3/Def2QZVP
 --------------------

 ------------
 cyanomethane
 ------------
 Symbolic Z-matrix:
 Charge =  0 Multiplicity = 1

                         Standard orientation:
 ---------------------------------------------------------------------
 Center     Atomic      Atomic             Coordinates (Angstroms)
 Number     Number       Type             X           Y           Z
 ---------------------------------------------------------------------
      1          6           0       -1.172041   -0.009389    0.002782
      2          6           0        0.278637    0.002741   -0.010402
      3          7           0        1.430010    0.002449    0.005111
      4          1           0       -1.540263   -0.230766    0.988861
      5          1           0       -1.522408   -0.747089   -0.691167
      6          1           0       -1.586977    1.000601   -0.287754
 ---------------------------------------------------------------------

 SCF Done:  E(RB2PLYPD3) =  -132.534661066     A.U. after   11 cycles
 E2(B2PLYPD3) =    -0.1802385303D+00 E(B2PLYPD3) =    -0.13271489959642D+03

 The electronic state is 1-A.
 Alpha  occ. eigenvalues --  -14.84097 -10.67119 -10.66130  -1.04255  -0.89284
 Alpha  occ. eigenvalues --   -0.59807  -0.54542  -0.53183  -0.44786  -0.39174
 Alpha  occ. eigenvalues --   -0.39017
 Alpha virt. eigenvalues --    0.03741   0.07621   0.08172   0.10172   0.11445
 Alpha virt. eigenvalues --    0.11638   0.15460   0.16286   0.16458   0.20055
 Alpha virt. eigenvalues --    0.20107   0.25471   0.32674   0.34274   0.34974

 Mulliken charges:
               1
     1  C   -0.084489
     2  C   -0.001534
     3  N   -0.204615
     4  H    0.097927
     5  H    0.099482
     6  H    0.093229
 Sum of Mulliken charges =   0.00000

 Dipole moment (field-independent basis, Debye):
    X=             -4.1174    Y=             -0.0142    Z=              0.0019  Tot=              4.1175
 Quadrupole moment (field-independent basis, Debye-Ang):
   XX=            -21.0019   YY=            -17.7266   ZZ=            -17.7529
   XY=             -0.0426   XZ=             -0.0497   YZ=              0.0358

 Normal termination of Gaussian 09 at Thu Aug 27 00:13:01 2020.
