 Gaussian 09, Revision D.01,
 Gaussian 09:  ES64L-G09RevD.01 24-Apr-2013

 --------------------
 #p B2PLYPD3/Def2QZVP
 --------------------

 ------------
 cyanomethane
 ------------
 Symbolic Z-matrix:
 Charge =  0 Multiplicity = 1

                         Standard orientation:
 ---------------------------------------------------------------------
 Center     Atomic      Atomic             Coordinates (Angstroms)
 Number     Number       Type             X           Y           Z
 ---------------------------------------------------------------------
      1          6           0       -1.183777   -0.003884    0.000431
      2          6           0        0.278625    0.009998    0.009867
      3          7           0        1.433329   -0.005940   -0.004652
      4          1           0       -1.541788   -0.003206    1.007193
      5          1           0       -1.542887   -0.900129   -0.521888
      6          1           0       -1.517712    0.908237   -0.514528
 ---------------------------------------------------------------------

 SCF Done:  E(RB2PLYPD3) =  -132.535180433     A.U. after   11 cycles
 E2(B2PLYPD3) =    -0.1804601634D+00 E(B2PLYPD3) =    -0.13271564059600D+03

 The electronic state is 1-A.
 Alpha  occ. eigenvalues --  -14.84126 -10.67177 -10.66198  -1.04040  -0.89226
 Alpha  occ. eigenvalues --   -0.59251  -0.54262  -0.53998  -0.44700  -0.39056
 Alpha  occ. eigenvalues --   -0.39000
 Alpha virt. eigenvalues --    0.03749   0.07900   0.08185   0.10190   0.11389
 Alpha virt. eigenvalues --    0.11436   0.15312   0.15982   0.16347   0.20096
 Alpha virt. eigenvalues --    0.20103   0.25236   0.32669   0.34412   0.34731

 Mulliken charges:
               1
     1  C   -0.090776
     2  C   -0.002885
     3  N   -0.206924
     4  H    0.100149
     5  H    0.100532
     6  H    0.099904
 Sum of Mulliken charges =   0.00000

 Dipole moment (field-independent basis, Debye):
    X=             -4.1227    Y=              0.0101    Z=              0.0159  Tot=              4.1227
 Quadrupole moment (field-independent basis, Debye-Ang):
   XX=            -21.1351   YY=            -17.6731   ZZ=            -17.7533
   XY=              0.0481   XZ=             -0.0077   YZ=              0.0018

 Normal termination of Gaussian 09 at Wed Aug 26 14:21:42 2020.
