 Gaussian 09, Revision D.01,
 Gaussian 09:  ES64L-G09RevD.01 24-Apr-2013

 --------------------
 #p B2PLYPD3/Def2QZVP
 --------------------

 ------------
 cyanomethane
 ------------
 Symbolic Z-matrix:
 Charge =  0 Multiplicity = 1

                         Standard orientation:
 ---------------------------------------------------------------------
 Center     Atomic      Atomic             Coordinates (Angstroms)
 Number     Number       Type             X           Y           Z
 ---------------------------------------------------------------------
      1          6           0       -1.180553    0.007469   -0.000005
      2          6           0        0.274144    0.003154   -0.012908
      3          7           0        1.430038   -0.005898    0.007763
      4          1           0       -1.475671    0.986157   -0.310809
      5          1           0       -1.547004   -0.223632    1.014007
      6          1           0       -1.549132   -0.784981   -0.680062
 ---------------------------------------------------------------------

 SCF Done:  E(RB2PLYPD3) =  -132.534188087     A.U. after   12 cycles
 E2(B2PLYPD3) =    -0.1806316214D+00 E(B2PLYPD3) =    -0.13271481970829D+03

 The electronic state is 1-A.
 Alpha  occ. eigenvalues --  -14.84111 -10.67240 -10.66160  -1.03990  -0.89329
 Alpha  occ. eigenvalues --   -0.59100  -0.54967  -0.53444  -0.44674  -0.38996
 Alpha  occ. eigenvalues --   -0.38854
 Alpha virt. eigenvalues --    0.03731   0.07668   0.08259   0.10172   0.11327
 Alpha virt. eigenvalues --    0.11560   0.15317   0.15928   0.16231   0.20084
 Alpha virt. eigenvalues --    0.20151   0.25354   0.32672   0.34142   0.34828

 Mulliken charges:
               1
     1  C   -0.094709
     2  C   -0.002670
     3  N   -0.208025
     4  H    0.105693
     5  H    0.099829
     6  H    0.099881
 Sum of Mulliken charges =   0.00000

 Dipole moment (field-independent basis, Debye):
    X=             -4.1147    Y=              0.0048    Z=             -0.0048  Tot=              4.1147
 Quadrupole moment (field-independent basis, Debye-Ang):
   XX=            -21.2145   YY=            -17.6251   ZZ=            -17.7680
   XY=              0.1065   XZ=             -0.0766   YZ=             -0.0263

 Normal termination of Gaussian 09 at Wed Aug 26 09:47:05 2020.
