 Gaussian 09, Revision D.01,
 Gaussian 09:  ES64L-G09RevD.01 24-Apr-2013

 --------------------
 #p B2PLYPD3/Def2QZVP
 --------------------

 ------------
 cyanomethane
 ------------
 Symbolic Z-matrix:
 Charge =  0 Multiplicity = 1

                         Standard orientation:
 ---------------------------------------------------------------------
 Center     Atomic      Atomic             Coordinates (Angstroms)
 Number     Number       Type             X           Y           Z
 ---------------------------------------------------------------------
      1          6           0       -1.141895    0.007956    0.006675
      2          6           0        0.263586    0.015816   -0.049306
      3          7           0        1.428469   -0.003655    0.018289
      4          1           0       -1.574067   -0.842384   -0.575946
      5          1           0       -1.684218    0.905064   -0.326208
      6          1           0       -1.471142   -0.179725    1.029912
 ---------------------------------------------------------------------

 SCF Done:  E(RB2PLYPD3) =  -132.529899014     A.U. after   12 cycles
 E2(B2PLYPD3) =    -0.1819670492D+00 E(B2PLYPD3) =    -0.13271186606312D+03

 The electronic state is 1-A.
 Alpha  occ. eigenvalues --  -14.84630 -10.66991 -10.66564  -1.03864  -0.89787
 Alpha  occ. eigenvalues --   -0.61522  -0.53626  -0.53133  -0.45048  -0.38637
 Alpha  occ. eigenvalues --   -0.38437
 Alpha virt. eigenvalues --    0.03668   0.06942   0.07088   0.10056   0.11564
 Alpha virt. eigenvalues --    0.11829   0.15724   0.16210   0.17168   0.20173
 Alpha virt. eigenvalues --    0.20178   0.26348   0.32817   0.34205   0.34835

 Mulliken charges:
               1
     1  C   -0.069971
     2  C    0.007977
     3  N   -0.211757
     4  H    0.088075
     5  H    0.091807
     6  H    0.093869
 Sum of Mulliken charges =   0.00000

 Dipole moment (field-independent basis, Debye):
    X=             -4.1463    Y=             -0.0172    Z=              0.0052  Tot=              4.1463
 Quadrupole moment (field-independent basis, Debye-Ang):
   XX=            -20.7058   YY=            -17.8428   ZZ=            -17.9011
   XY=             -0.0169   XZ=             -0.0533   YZ=             -0.0196

 Normal termination of Gaussian 09 at Wed Aug 26 22:13:03 2020.
