 Gaussian 09, Revision D.01,
 Gaussian 09:  ES64L-G09RevD.01 24-Apr-2013

 --------------------
 #p B2PLYPD3/Def2QZVP
 --------------------

 ------------
 cyanomethane
 ------------
 Symbolic Z-matrix:
 Charge =  0 Multiplicity = 1

                         Standard orientation:
 ---------------------------------------------------------------------
 Center     Atomic      Atomic             Coordinates (Angstroms)
 Number     Number       Type             X           Y           Z
 ---------------------------------------------------------------------
      1          6           0        1.140066   -0.028555    0.028477
      2          6           0       -0.280255   -0.039049   -0.005995
      3          7           0       -1.418576    0.037174   -0.006967
      4          1           0        1.785005    0.998864   -0.428762
      5          1           0        1.506240   -0.802590   -0.599946
      6          1           0        1.479924   -0.050869    0.942581
 ---------------------------------------------------------------------

 SCF Done:  E(RB2PLYPD3) =  -132.502176605     A.U. after   12 cycles
 E2(B2PLYPD3) =    -0.1801790231D+00 E(B2PLYPD3) =    -0.13268235562841D+03

 The electronic state is 1-A.
 Alpha  occ. eigenvalues --  -14.84079 -10.67039 -10.65922  -1.04997  -0.89976
 Alpha  occ. eigenvalues --   -0.61328  -0.56684  -0.49748  -0.45059  -0.39770
 Alpha  occ. eigenvalues --   -0.38580
 Alpha virt. eigenvalues --    0.02465   0.06438   0.08879   0.10102   0.11359
 Alpha virt. eigenvalues --    0.12351   0.15721   0.16379   0.17514   0.19847
 Alpha virt. eigenvalues --    0.20333   0.26038   0.29995   0.33939   0.36107

 Mulliken charges:
               1
     1  C   -0.085192
     2  C    0.004468
     3  N   -0.196343
     4  H    0.073065
     5  H    0.097720
     6  H    0.106282
 Sum of Mulliken charges =   0.00000

 Dipole moment (field-independent basis, Debye):
    X=              4.0472    Y=             -0.1387    Z=              0.0582  Tot=              4.0500
 Quadrupole moment (field-independent basis, Debye-Ang):
   XX=            -20.6908   YY=            -17.9238   ZZ=            -17.7551
   XY=              0.2736   XZ=             -0.0538   YZ=              0.1804

 Normal termination of Gaussian 09 at Wed Aug 26 19:21:11 2020.
