 Gaussian 09, Revision D.01,
 Gaussian 09:  ES64L-G09RevD.01 24-Apr-2013

 --------------------
 #p B2PLYPD3/Def2QZVP
 --------------------

 ------------
 cyanomethane
 ------------
 Symbolic Z-matrix:
 Charge =  0 Multiplicity = 1

                         Standard orientation:
 ---------------------------------------------------------------------
 Center     Atomic      Atomic             Coordinates (Angstroms)
 Number     Number       Type             X           Y           Z
 ---------------------------------------------------------------------
      1          6           0       -1.194708    0.012069    0.015464
      2          6           0        0.307566    0.081650   -0.006459
      3          7           0        1.425770   -0.042186   -0.002673
      4          1           0       -1.485210   -0.396626    0.996537
      5          1           0       -1.571814   -0.862783   -0.765701
      6          1           0       -1.600516    0.992393   -0.266150
 ---------------------------------------------------------------------

 SCF Done:  E(RB2PLYPD3) =  -132.520558423     A.U. after   12 cycles
 E2(B2PLYPD3) =    -0.1790168462D+00 E(B2PLYPD3) =    -0.13269957526917D+03

 The electronic state is 1-A.
 Alpha  occ. eigenvalues --  -14.83379 -10.69087 -10.65494  -1.05228  -0.87235
 Alpha  occ. eigenvalues --   -0.57712  -0.54800  -0.50555  -0.44593  -0.40101
 Alpha  occ. eigenvalues --   -0.39408
 Alpha virt. eigenvalues --    0.03056   0.07264   0.08713   0.10217   0.11210
 Alpha virt. eigenvalues --    0.12117   0.15056   0.16249   0.16444   0.19681
 Alpha virt. eigenvalues --    0.20067   0.24812   0.31197   0.32793   0.35257

 Mulliken charges:
               1
     1  C   -0.115857
     2  C   -0.007495
     3  N   -0.186357
     4  H    0.107568
     5  H    0.091983
     6  H    0.110157
 Sum of Mulliken charges =   0.00000

 Dipole moment (field-independent basis, Debye):
    X=             -4.0408    Y=              0.0509    Z=              0.0376  Tot=              4.0413
 Quadrupole moment (field-independent basis, Debye-Ang):
   XX=            -21.2957   YY=            -17.5056   ZZ=            -17.8900
   XY=              0.2643   XZ=              0.0341   YZ=             -0.1604

 Normal termination of Gaussian 09 at Wed Aug 26 18:34:10 2020.
