 Gaussian 09, Revision D.01,
 Gaussian 09:  ES64L-G09RevD.01 24-Apr-2013

 --------------------
 #p B2PLYPD3/Def2QZVP
 --------------------

 ------------
 cyanomethane
 ------------
 Symbolic Z-matrix:
 Charge =  0 Multiplicity = 1

                         Standard orientation:
 ---------------------------------------------------------------------
 Center     Atomic      Atomic             Coordinates (Angstroms)
 Number     Number       Type             X           Y           Z
 ---------------------------------------------------------------------
      1          6           0        1.180436   -0.003781   -0.006155
      2          6           0       -0.283238    0.001409    0.028258
      3          7           0       -1.424511   -0.000192   -0.014833
      4          1           0        1.533376    1.003362   -0.227264
      5          1           0        1.533895   -0.683217   -0.760803
      6          1           0        1.521122   -0.304567    0.959279
 ---------------------------------------------------------------------

 SCF Done:  E(RB2PLYPD3) =  -132.535945325     A.U. after   11 cycles
 E2(B2PLYPD3) =    -0.1792339708D+00 E(B2PLYPD3) =    -0.13271517929590D+03

 The electronic state is 1-A.
 Alpha  occ. eigenvalues --  -14.83751 -10.66782 -10.65786  -1.04550  -0.89394
 Alpha  occ. eigenvalues --   -0.59235  -0.54600  -0.54080  -0.44649  -0.39397
 Alpha  occ. eigenvalues --   -0.39342
 Alpha virt. eigenvalues --    0.03818   0.08217   0.08587   0.10206   0.11482
 Alpha virt. eigenvalues --    0.11583   0.15404   0.15963   0.16562   0.20021
 Alpha virt. eigenvalues --    0.20067   0.25277   0.32947   0.34664   0.34964

 Mulliken charges:
               1
     1  C   -0.087966
     2  C   -0.005933
     3  N   -0.200487
     4  H    0.097114
     5  H    0.099151
     6  H    0.098122
 Sum of Mulliken charges =   0.00000

 Dipole moment (field-independent basis, Debye):
    X=              4.1023    Y=             -0.0003    Z=              0.0248  Tot=              4.1024
 Quadrupole moment (field-independent basis, Debye-Ang):
   XX=            -21.0827   YY=            -17.6660   ZZ=            -17.6521
   XY=              0.0010   XZ=             -0.0896   YZ=              0.0041

 Normal termination of Gaussian 09 at Thu Aug 27 00:08:03 2020.
