 Gaussian 09, Revision D.01,
 Gaussian 09:  ES64L-G09RevD.01 24-Apr-2013

 --------------------
 #p B2PLYPD3/Def2QZVP
 --------------------

 ------------
 cyanomethane
 ------------
 Symbolic Z-matrix:
 Charge =  0 Multiplicity = 1

                         Standard orientation:
 ---------------------------------------------------------------------
 Center     Atomic      Atomic             Coordinates (Angstroms)
 Number     Number       Type             X           Y           Z
 ---------------------------------------------------------------------
      1          6           0       -1.169184   -0.008239    0.004826
      2          6           0        0.276846    0.018829   -0.008690
      3          7           0        1.430642   -0.009008    0.001525
      4          1           0       -1.554464    1.030704   -0.030677
      5          1           0       -1.523105   -0.484101    0.897932
      6          1           0       -1.582896   -0.547090   -0.854749
 ---------------------------------------------------------------------

 SCF Done:  E(RB2PLYPD3) =  -132.535113257     A.U. after   11 cycles
 E2(B2PLYPD3) =    -0.1804816365D+00 E(B2PLYPD3) =    -0.13271559489327D+03

 The electronic state is 1-A.
 Alpha  occ. eigenvalues --  -14.84191 -10.67072 -10.66216  -1.04172  -0.89335
 Alpha  occ. eigenvalues --   -0.60040  -0.54160  -0.53477  -0.44825  -0.39067
 Alpha  occ. eigenvalues --   -0.38977
 Alpha virt. eigenvalues --    0.03757   0.07683   0.07908   0.10146   0.11514
 Alpha virt. eigenvalues --    0.11564   0.15501   0.16201   0.16615   0.20075
 Alpha virt. eigenvalues --    0.20112   0.25581   0.32787   0.34366   0.34869

 Mulliken charges:
               1
     1  C   -0.081782
     2  C   -0.000322
     3  N   -0.205898
     4  H    0.094369
     5  H    0.098554
     6  H    0.095078
 Sum of Mulliken charges =   0.00000

 Dipole moment (field-independent basis, Debye):
    X=             -4.1219    Y=              0.0061    Z=              0.0026  Tot=              4.1219
 Quadrupole moment (field-independent basis, Debye-Ang):
   XX=            -20.9636   YY=            -17.7385   ZZ=            -17.7756
   XY=              0.0651   XZ=              0.0258   YZ=             -0.0192

 Normal termination of Gaussian 09 at Wed Aug 26 09:55:10 2020.
