 Gaussian 09, Revision D.01,
 Gaussian 09:  ES64L-G09RevD.01 24-Apr-2013

 --------------------
 #p B2PLYPD3/Def2QZVP
 --------------------

 ------------
 cyanomethane
 ------------
 Symbolic Z-matrix:
 Charge =  0 Multiplicity = 1

                         Standard orientation:
 ---------------------------------------------------------------------
 Center     Atomic      Atomic             Coordinates (Angstroms)
 Number     Number       Type             X           Y           Z
 ---------------------------------------------------------------------
      1          6           0        1.161323    0.006827   -0.012691
      2          6           0       -0.268328   -0.035414    0.030836
      3          7           0       -1.439733    0.020636   -0.013648
      4          1           0        1.533709   -0.710686   -0.680589
      5          1           0        1.577948   -0.218854    0.946814
      6          1           0        1.608507    0.956609   -0.279558
 ---------------------------------------------------------------------

 SCF Done:  E(RB2PLYPD3) =  -132.530078685     A.U. after   12 cycles
 E2(B2PLYPD3) =    -0.1820577977D+00 E(B2PLYPD3) =    -0.13271213648312D+03

 The electronic state is 1-A.
 Alpha  occ. eigenvalues --  -14.84855 -10.66852 -10.66170  -1.03542  -0.90137
 Alpha  occ. eigenvalues --   -0.61480  -0.54650  -0.53502  -0.45052  -0.38683
 Alpha  occ. eigenvalues --   -0.38553
 Alpha virt. eigenvalues --    0.03756   0.07123   0.07809   0.10022   0.11282
 Alpha virt. eigenvalues --    0.11525   0.15689   0.16069   0.17185   0.20145
 Alpha virt. eigenvalues --    0.20277   0.25991   0.33005   0.34741   0.35173

 Mulliken charges:
               1
     1  C   -0.057858
     2  C    0.006409
     3  N   -0.214480
     4  H    0.091298
     5  H    0.085742
     6  H    0.088890
 Sum of Mulliken charges =   0.00000

 Dipole moment (field-independent basis, Debye):
    X=              4.1661    Y=             -0.0357    Z=              0.0259  Tot=              4.1663
 Quadrupole moment (field-independent basis, Debye-Ang):
   XX=            -20.6529   YY=            -17.8370   ZZ=            -17.8780
   XY=              0.1371   XZ=             -0.0306   YZ=              0.0430

 Normal termination of Gaussian 09 at Wed Aug 26 13:01:30 2020.
