 Gaussian 09, Revision D.01,
 Gaussian 09:  ES64L-G09RevD.01 24-Apr-2013

 --------------------
 #p B2PLYPD3/Def2QZVP
 --------------------

 ------------
 cyanomethane
 ------------
 Symbolic Z-matrix:
 Charge =  0 Multiplicity = 1

                         Standard orientation:
 ---------------------------------------------------------------------
 Center     Atomic      Atomic             Coordinates (Angstroms)
 Number     Number       Type             X           Y           Z
 ---------------------------------------------------------------------
      1          6           0       -1.177756   -0.000987    0.003431
      2          6           0        0.263930   -0.004396    0.032552
      3          7           0        1.433781   -0.001856   -0.016530
      4          1           0       -1.525394    0.043056    0.965714
      5          1           0       -1.562580   -0.902425   -0.510967
      6          1           0       -1.465541    0.904663   -0.554930
 ---------------------------------------------------------------------

 SCF Done:  E(RB2PLYPD3) =  -132.530049738     A.U. after   12 cycles
 E2(B2PLYPD3) =    -0.1817555793D+00 E(B2PLYPD3) =    -0.13271180531720D+03

 The electronic state is 1-A.
 Alpha  occ. eigenvalues --  -14.84510 -10.66694 -10.66541  -1.03457  -0.89985
 Alpha  occ. eigenvalues --   -0.59769  -0.55273  -0.53931  -0.44746  -0.38649
 Alpha  occ. eigenvalues --   -0.38456
 Alpha virt. eigenvalues --    0.03712   0.07398   0.08264   0.10136   0.11149
 Alpha virt. eigenvalues --    0.11438   0.15377   0.15741   0.16324   0.20162
 Alpha virt. eigenvalues --    0.20223   0.25611   0.32738   0.34089   0.34958

 Mulliken charges:
               1
     1  C   -0.087889
     2  C    0.000461
     3  N   -0.215704
     4  H    0.102423
     5  H    0.099653
     6  H    0.101056
 Sum of Mulliken charges =   0.00000

 Dipole moment (field-independent basis, Debye):
    X=             -4.1390    Y=              0.0122    Z=              0.0305  Tot=              4.1391
 Quadrupole moment (field-independent basis, Debye-Ang):
   XX=            -21.1596   YY=            -17.6875   ZZ=            -17.7556
   XY=              0.0647   XZ=              0.0460   YZ=              0.0019

 Normal termination of Gaussian 09 at Wed Aug 26 13:36:23 2020.
