 Gaussian 09, Revision D.01,
 Gaussian 09:  ES64L-G09RevD.01 24-Apr-2013

 --------------------
 #p B2PLYPD3/Def2QZVP
 --------------------

 ------------
 cyanomethane
 ------------
 Symbolic Z-matrix:
 Charge =  0 Multiplicity = 1

                         Standard orientation:
 ---------------------------------------------------------------------
 Center     Atomic      Atomic             Coordinates (Angstroms)
 Number     Number       Type             X           Y           Z
 ---------------------------------------------------------------------
      1          6           0        1.191640   -0.013867   -0.021476
      2          6           0       -0.289992    0.001763    0.037253
      3          7           0       -1.431625    0.000759   -0.015660
      4          1           0        1.540396    1.048552   -0.032145
      5          1           0        1.513559   -0.521763   -0.854908
      6          1           0        1.557529   -0.459475    0.902010
 ---------------------------------------------------------------------

 SCF Done:  E(RB2PLYPD3) =  -132.532639269     A.U. after   12 cycles
 E2(B2PLYPD3) =    -0.1793702445D+00 E(B2PLYPD3) =    -0.13271200951361D+03

 The electronic state is 1-A.
 Alpha  occ. eigenvalues --  -14.83818 -10.67017 -10.65909  -1.04496  -0.89092
 Alpha  occ. eigenvalues --   -0.59104  -0.55229  -0.53121  -0.44647  -0.39580
 Alpha  occ. eigenvalues --   -0.39273
 Alpha virt. eigenvalues --    0.03776   0.08230   0.08590   0.10194   0.11308
 Alpha virt. eigenvalues --    0.11591   0.15248   0.15877   0.16675   0.19977
 Alpha virt. eigenvalues --    0.20073   0.24998   0.32584   0.33961   0.35519

 Mulliken charges:
               1
     1  C   -0.089451
     2  C   -0.005699
     3  N   -0.200434
     4  H    0.094590
     5  H    0.104996
     6  H    0.095998
 Sum of Mulliken charges =   0.00000

 Dipole moment (field-independent basis, Debye):
    X=              4.1092    Y=             -0.0004    Z=              0.0297  Tot=              4.1093
 Quadrupole moment (field-independent basis, Debye-Ang):
   XX=            -21.0838   YY=            -17.7149   ZZ=            -17.6517
   XY=              0.0149   XZ=             -0.0402   YZ=              0.0617

 Normal termination of Gaussian 09 at Wed Aug 26 12:53:17 2020.
