 Gaussian 09, Revision D.01,
 Gaussian 09:  ES64L-G09RevD.01 24-Apr-2013

 --------------------
 #p B2PLYPD3/Def2QZVP
 --------------------

 ------------
 cyanomethane
 ------------
 Symbolic Z-matrix:
 Charge =  0 Multiplicity = 1

                         Standard orientation:
 ---------------------------------------------------------------------
 Center     Atomic      Atomic             Coordinates (Angstroms)
 Number     Number       Type             X           Y           Z
 ---------------------------------------------------------------------
      1          6           0        1.176832   -0.002054   -0.003123
      2          6           0       -0.285172    0.005559    0.021879
      3          7           0       -1.437537   -0.001906   -0.010472
      4          1           0        1.580736    1.009560   -0.125342
      5          1           0        1.555829   -0.608035   -0.809130
      6          1           0        1.576237   -0.409216    0.895241
 ---------------------------------------------------------------------

 SCF Done:  E(RB2PLYPD3) =  -132.535233089     A.U. after   11 cycles
 E2(B2PLYPD3) =    -0.1802313789D+00 E(B2PLYPD3) =    -0.13271546446747D+03

 The electronic state is 1-A.
 Alpha  occ. eigenvalues --  -14.84245 -10.66820 -10.66325  -1.04233  -0.89288
 Alpha  occ. eigenvalues --   -0.60267  -0.53933  -0.53689  -0.44872  -0.39219
 Alpha  occ. eigenvalues --   -0.39191
 Alpha virt. eigenvalues --    0.03787   0.07847   0.08127   0.10190   0.11407
 Alpha virt. eigenvalues --    0.11501   0.15447   0.16445   0.16720   0.20052
 Alpha virt. eigenvalues --    0.20089   0.25303   0.32772   0.34776   0.34966

 Mulliken charges:
               1
     1  C   -0.072030
     2  C   -0.000099
     3  N   -0.204708
     4  H    0.092108
     5  H    0.092731
     6  H    0.091998
 Sum of Mulliken charges =   0.00000

 Dipole moment (field-independent basis, Debye):
    X=              4.1388    Y=             -0.0111    Z=              0.0175  Tot=              4.1389
 Quadrupole moment (field-independent basis, Debye-Ang):
   XX=            -20.8023   YY=            -17.7469   ZZ=            -17.8341
   XY=             -0.0297   XZ=             -0.0415   YZ=             -0.0045

 Normal termination of Gaussian 09 at Thu Aug 27 00:01:05 2020.
