 Gaussian 09, Revision D.01,
 Gaussian 09:  ES64L-G09RevD.01 24-Apr-2013

 --------------------
 #p B2PLYPD3/Def2QZVP
 --------------------

 ------------
 cyanomethane
 ------------
 Symbolic Z-matrix:
 Charge =  0 Multiplicity = 1

                         Standard orientation:
 ---------------------------------------------------------------------
 Center     Atomic      Atomic             Coordinates (Angstroms)
 Number     Number       Type             X           Y           Z
 ---------------------------------------------------------------------
      1          6           0       -1.174785   -0.007136    0.000318
      2          6           0        0.283227    0.020134    0.000890
      3          7           0        1.427977   -0.003342    0.000348
      4          1           0       -1.534413   -0.328423    0.961570
      5          1           0       -1.481545   -0.728668   -0.744814
      6          1           0       -1.630528    1.002493   -0.226442
 ---------------------------------------------------------------------

 SCF Done:  E(RB2PLYPD3) =  -132.534710639     A.U. after   12 cycles
 E2(B2PLYPD3) =    -0.1797363291D+00 E(B2PLYPD3) =    -0.13271444696791D+03

 The electronic state is 1-A.
 Alpha  occ. eigenvalues --  -14.83903 -10.67283 -10.65959  -1.04492  -0.89070
 Alpha  occ. eigenvalues --   -0.59497  -0.54209  -0.53314  -0.44737  -0.39281
 Alpha  occ. eigenvalues --   -0.39256
 Alpha virt. eigenvalues --    0.03734   0.07720   0.08299   0.10215   0.11598
 Alpha virt. eigenvalues --    0.11605   0.15388   0.16124   0.16651   0.20032
 Alpha virt. eigenvalues --    0.20067   0.25354   0.32575   0.34559   0.34685

 Mulliken charges:
               1
     1  C   -0.089041
     2  C   -0.002944
     3  N   -0.201209
     4  H    0.098095
     5  H    0.100187
     6  H    0.094913
 Sum of Mulliken charges =   0.00000

 Dipole moment (field-independent basis, Debye):
    X=             -4.1075    Y=             -0.0195    Z=              0.0092  Tot=              4.1076
 Quadrupole moment (field-independent basis, Debye-Ang):
   XX=            -21.0256   YY=            -17.6776   ZZ=            -17.7681
   XY=             -0.0376   XZ=             -0.0415   YZ=              0.0194

 Normal termination of Gaussian 09 at Wed Aug 26 23:54:59 2020.
