 Gaussian 09, Revision D.01,
 Gaussian 09:  ES64L-G09RevD.01 24-Apr-2013

 --------------------
 #p B2PLYPD3/Def2QZVP
 --------------------

 ------------
 cyanomethane
 ------------
 Symbolic Z-matrix:
 Charge =  0 Multiplicity = 1

                         Standard orientation:
 ---------------------------------------------------------------------
 Center     Atomic      Atomic             Coordinates (Angstroms)
 Number     Number       Type             X           Y           Z
 ---------------------------------------------------------------------
      1          6           0       -1.181814   -0.003035   -0.000071
      2          6           0        0.280331    0.011214    0.008640
      3          7           0        1.434213   -0.000448   -0.003097
      4          1           0       -1.530945   -0.474838    0.910169
      5          1           0       -1.489340   -0.596718   -0.860226
      6          1           0       -1.610302    1.025617   -0.079680
 ---------------------------------------------------------------------

 SCF Done:  E(RB2PLYPD3) =  -132.534848640     A.U. after   12 cycles
 E2(B2PLYPD3) =    -0.1805008396D+00 E(B2PLYPD3) =    -0.13271534947999D+03

 The electronic state is 1-A.
 Alpha  occ. eigenvalues --  -14.84136 -10.67406 -10.66220  -1.04099  -0.89031
 Alpha  occ. eigenvalues --   -0.59284  -0.54151  -0.53581  -0.44732  -0.39071
 Alpha  occ. eigenvalues --   -0.39027
 Alpha virt. eigenvalues --    0.03717   0.07701   0.08130   0.10202   0.11428
 Alpha virt. eigenvalues --    0.11491   0.15309   0.15964   0.16515   0.20082
 Alpha virt. eigenvalues --    0.20100   0.25245   0.32535   0.34445   0.34602

 Mulliken charges:
               1
     1  C   -0.091583
     2  C   -0.002107
     3  N   -0.205974
     4  H    0.100480
     5  H    0.101158
     6  H    0.098026
 Sum of Mulliken charges =   0.00000

 Dipole moment (field-independent basis, Debye):
    X=             -4.1225    Y=             -0.0162    Z=              0.0030  Tot=              4.1226
 Quadrupole moment (field-independent basis, Debye-Ang):
   XX=            -21.1001   YY=            -17.7202   ZZ=            -17.7553
   XY=             -0.0490   XZ=             -0.0057   YZ=             -0.0008

 Normal termination of Gaussian 09 at Wed Aug 26 23:48:22 2020.
