 Gaussian 09, Revision D.01,
 Gaussian 09:  ES64L-G09RevD.01 24-Apr-2013

 --------------------
 #p B2PLYPD3/Def2QZVP
 --------------------

 ------------
 cyanomethane
 ------------
 Symbolic Z-matrix:
 Charge =  0 Multiplicity = 1

                         Standard orientation:
 ---------------------------------------------------------------------
 Center     Atomic      Atomic             Coordinates (Angstroms)
 Number     Number       Type             X           Y           Z
 ---------------------------------------------------------------------
      1          6           0        1.170586   -0.017397   -0.011721
      2          6           0       -0.262795    0.015664    0.021473
      3          7           0       -1.431858   -0.000955   -0.009389
      4          1           0        1.530643   -0.028300    0.989888
      5          1           0        1.585769    0.908336   -0.464803
      6          1           0        1.459847   -0.862956   -0.517878
 ---------------------------------------------------------------------

 SCF Done:  E(RB2PLYPD3) =  -132.530097293     A.U. after   11 cycles
 E2(B2PLYPD3) =    -0.1815314992D+00 E(B2PLYPD3) =    -0.13271162879235D+03

 The electronic state is 1-A.
 Alpha  occ. eigenvalues --  -14.84503 -10.66508 -10.66268  -1.03558  -0.90300
 Alpha  occ. eigenvalues --   -0.60154  -0.55993  -0.53597  -0.44795  -0.38728
 Alpha  occ. eigenvalues --   -0.38466
 Alpha virt. eigenvalues --    0.03833   0.07497   0.08139   0.10127   0.11220
 Alpha virt. eigenvalues --    0.11485   0.15495   0.15856   0.16490   0.20143
 Alpha virt. eigenvalues --    0.20234   0.25791   0.32771   0.34253   0.35511

 Mulliken charges:
               1
     1  C   -0.077853
     2  C    0.000627
     3  N   -0.215212
     4  H    0.094415
     5  H    0.093847
     6  H    0.104175
 Sum of Mulliken charges =   0.00000

 Dipole moment (field-independent basis, Debye):
    X=              4.1463    Y=             -0.0017    Z=              0.0350  Tot=              4.1464
 Quadrupole moment (field-independent basis, Debye-Ang):
   XX=            -21.0295   YY=            -17.6457   ZZ=            -17.8136
   XY=              0.0911   XZ=              0.0190   YZ=              0.0729

 Normal termination of Gaussian 09 at Wed Aug 26 15:01:07 2020.
