 Gaussian 09, Revision D.01,
 Gaussian 09:  ES64L-G09RevD.01 24-Apr-2013

 --------------------
 #p B2PLYPD3/Def2QZVP
 --------------------

 ------------
 cyanomethane
 ------------
 Symbolic Z-matrix:
 Charge =  0 Multiplicity = 1

                         Standard orientation:
 ---------------------------------------------------------------------
 Center     Atomic      Atomic             Coordinates (Angstroms)
 Number     Number       Type             X           Y           Z
 ---------------------------------------------------------------------
      1          6           0        1.178322    0.024256    0.014914
      2          6           0       -0.296441   -0.078459   -0.000426
      3          7           0       -1.435785    0.039209    0.000038
      4          1           0        1.607548    0.005597    0.995344
      5          1           0        1.577411    0.934387   -0.532229
      6          1           0        1.574253   -0.889229   -0.550315
 ---------------------------------------------------------------------

 SCF Done:  E(RB2PLYPD3) =  -132.529520439     A.U. after   12 cycles
 E2(B2PLYPD3) =    -0.1803328899D+00 E(B2PLYPD3) =    -0.13270985332879D+03

 The electronic state is 1-A.
 Alpha  occ. eigenvalues --  -14.84164 -10.68058 -10.66244  -1.04591  -0.88078
 Alpha  occ. eigenvalues --   -0.59697  -0.53382  -0.52091  -0.44926  -0.39542
 Alpha  occ. eigenvalues --   -0.39189
 Alpha virt. eigenvalues --    0.03421   0.07312   0.07996   0.10028   0.11431
 Alpha virt. eigenvalues --    0.11625   0.15401   0.15786   0.17513   0.19904
 Alpha virt. eigenvalues --    0.20100   0.25522   0.32362   0.33598   0.34773

 Mulliken charges:
               1
     1  C   -0.089493
     2  C    0.003565
     3  N   -0.198576
     4  H    0.099363
     5  H    0.096895
     6  H    0.088246
 Sum of Mulliken charges =   0.00000

 Dipole moment (field-independent basis, Debye):
    X=              4.0824    Y=             -0.0597    Z=              0.0073  Tot=              4.0828
 Quadrupole moment (field-independent basis, Debye-Ang):
   XX=            -20.8955   YY=            -17.8250   ZZ=            -17.8322
   XY=              0.2269   XZ=              0.0368   YZ=             -0.0269

 Normal termination of Gaussian 09 at Wed Aug 26 18:47:36 2020.
