 Gaussian 09, Revision D.01,
 Gaussian 09:  ES64L-G09RevD.01 24-Apr-2013

 --------------------
 #p B2PLYPD3/Def2QZVP
 --------------------

 ------------
 cyanomethane
 ------------
 Symbolic Z-matrix:
 Charge =  0 Multiplicity = 1

                         Standard orientation:
 ---------------------------------------------------------------------
 Center     Atomic      Atomic             Coordinates (Angstroms)
 Number     Number       Type             X           Y           Z
 ---------------------------------------------------------------------
      1          6           0       -1.172000    0.001280    0.012942
      2          6           0        0.276588    0.054150    0.007563
      3          7           0        1.416870   -0.019149    0.000157
      4          1           0       -1.537180   -0.457469    0.908962
      5          1           0       -1.381990   -0.707771   -0.843237
      6          1           0       -1.626448    0.966698   -0.189855
 ---------------------------------------------------------------------

 SCF Done:  E(RB2PLYPD3) =  -132.532920659     A.U. after   12 cycles
 E2(B2PLYPD3) =    -0.1796065026D+00 E(B2PLYPD3) =    -0.13271252716177D+03

 The electronic state is 1-A.
 Alpha  occ. eigenvalues --  -14.83685 -10.67232 -10.65748  -1.04548  -0.89300
 Alpha  occ. eigenvalues --   -0.59356  -0.54871  -0.53168  -0.44621  -0.39411
 Alpha  occ. eigenvalues --   -0.38913
 Alpha virt. eigenvalues --    0.03681   0.08052   0.08180   0.10216   0.11405
 Alpha virt. eigenvalues --    0.12006   0.15280   0.15696   0.16834   0.19967
 Alpha virt. eigenvalues --    0.20152   0.25590   0.32883   0.33261   0.35483

 Mulliken charges:
               1
     1  C   -0.099804
     2  C   -0.002089
     3  N   -0.201740
     4  H    0.102978
     5  H    0.099119
     6  H    0.101536
 Sum of Mulliken charges =   0.00000

 Dipole moment (field-independent basis, Debye):
    X=             -4.0866    Y=              0.0007    Z=             -0.0122  Tot=              4.0866
 Quadrupole moment (field-independent basis, Debye-Ang):
   XX=            -21.1906   YY=            -17.6019   ZZ=            -17.7214
   XY=              0.0097   XZ=             -0.0677   YZ=             -0.0638

 Normal termination of Gaussian 09 at Wed Aug 26 21:13:10 2020.
