 Gaussian 09, Revision D.01,
 Gaussian 09:  ES64L-G09RevD.01 24-Apr-2013

 --------------------
 #p B2PLYPD3/Def2QZVP
 --------------------

 ------------
 cyanomethane
 ------------
 Symbolic Z-matrix:
 Charge =  0 Multiplicity = 1

                         Standard orientation:
 ---------------------------------------------------------------------
 Center     Atomic      Atomic             Coordinates (Angstroms)
 Number     Number       Type             X           Y           Z
 ---------------------------------------------------------------------
      1          6           0        1.176295    0.001682    0.005615
      2          6           0       -0.278394   -0.000988   -0.013451
      3          7           0       -1.436802    0.001349    0.008401
      4          1           0        1.568849    1.030618   -0.062118
      5          1           0        1.526917   -0.573310   -0.854598
      6          1           0        1.574442   -0.470918    0.904926
 ---------------------------------------------------------------------

 SCF Done:  E(RB2PLYPD3) =  -132.534903276     A.U. after   11 cycles
 E2(B2PLYPD3) =    -0.1809132494D+00 E(B2PLYPD3) =    -0.13271581652536D+03

 The electronic state is 1-A.
 Alpha  occ. eigenvalues --  -14.84330 -10.67299 -10.66398  -1.03972  -0.89124
 Alpha  occ. eigenvalues --   -0.59827  -0.53799  -0.53660  -0.44829  -0.38979
 Alpha  occ. eigenvalues --   -0.38915
 Alpha virt. eigenvalues --    0.03720   0.07600   0.07862   0.10154   0.11422
 Alpha virt. eigenvalues --    0.11477   0.15411   0.16042   0.16680   0.20096
 Alpha virt. eigenvalues --    0.20124   0.25404   0.32661   0.34395   0.34665

 Mulliken charges:
               1
     1  C   -0.084078
     2  C    0.000057
     3  N   -0.207747
     4  H    0.097585
     5  H    0.096780
     6  H    0.097402
 Sum of Mulliken charges =   0.00000

 Dipole moment (field-independent basis, Debye):
    X=              4.1327    Y=             -0.0129    Z=             -0.0153  Tot=              4.1328
 Quadrupole moment (field-independent basis, Debye-Ang):
   XX=            -20.9909   YY=            -17.7420   ZZ=            -17.8181
   XY=             -0.0015   XZ=              0.0714   YZ=             -0.0022

 Normal termination of Gaussian 09 at Thu Aug 27 01:10:22 2020.
