 Gaussian 09, Revision D.01,
 Gaussian 09:  ES64L-G09RevD.01 24-Apr-2013

 --------------------
 #p B2PLYPD3/Def2QZVP
 --------------------

 ------------
 cyanomethane
 ------------
 Symbolic Z-matrix:
 Charge =  0 Multiplicity = 1

                         Standard orientation:
 ---------------------------------------------------------------------
 Center     Atomic      Atomic             Coordinates (Angstroms)
 Number     Number       Type             X           Y           Z
 ---------------------------------------------------------------------
      1          6           0        1.168519   -0.003077   -0.007114
      2          6           0       -0.273423    0.010934    0.014140
      3          7           0       -1.433159   -0.005365   -0.002736
      4          1           0        1.600358   -0.502449    0.883479
      5          1           0        1.553185    1.030079   -0.028223
      6          1           0        1.507996   -0.537214   -0.878261
 ---------------------------------------------------------------------

 SCF Done:  E(RB2PLYPD3) =  -132.534429610     A.U. after   11 cycles
 E2(B2PLYPD3) =    -0.1810345606D+00 E(B2PLYPD3) =    -0.13271546417107D+03

 The electronic state is 1-A.
 Alpha  occ. eigenvalues --  -14.84350 -10.67175 -10.66376  -1.03950  -0.89354
 Alpha  occ. eigenvalues --   -0.60063  -0.54238  -0.53344  -0.44849  -0.38892
 Alpha  occ. eigenvalues --   -0.38818
 Alpha virt. eigenvalues --    0.03733   0.07462   0.07783   0.10142   0.11458
 Alpha virt. eigenvalues --    0.11548   0.15485   0.16246   0.16482   0.20103
 Alpha virt. eigenvalues --    0.20140   0.25633   0.32716   0.34345   0.34739

 Mulliken charges:
               1
     1  C   -0.082465
     2  C    0.000713
     3  N   -0.208689
     4  H    0.094228
     5  H    0.096535
     6  H    0.099679
 Sum of Mulliken charges =   0.00000

 Dipole moment (field-independent basis, Debye):
    X=              4.1306    Y=              0.0013    Z=             -0.0026  Tot=              4.1306
 Quadrupole moment (field-independent basis, Debye-Ang):
   XX=            -20.9795   YY=            -17.7472   ZZ=            -17.8075
   XY=             -0.0428   XZ=              0.0412   YZ=              0.0305

 Normal termination of Gaussian 09 at Wed Aug 26 10:00:32 2020.
