 Gaussian 09, Revision D.01,
 Gaussian 09:  ES64L-G09RevD.01 24-Apr-2013

 --------------------
 #p B2PLYPD3/Def2QZVP
 --------------------

 ------------
 cyanomethane
 ------------
 Symbolic Z-matrix:
 Charge =  0 Multiplicity = 1

                         Standard orientation:
 ---------------------------------------------------------------------
 Center     Atomic      Atomic             Coordinates (Angstroms)
 Number     Number       Type             X           Y           Z
 ---------------------------------------------------------------------
      1          6           0       -1.179275   -0.041216   -0.002897
      2          6           0        0.269815    0.010033   -0.031701
      3          7           0        1.425035    0.000186    0.013532
      4          1           0       -1.534870    1.001247   -0.133934
      5          1           0       -1.455633   -0.261725    0.931282
      6          1           0       -1.527976   -0.553725   -0.684483
 ---------------------------------------------------------------------

 SCF Done:  E(RB2PLYPD3) =  -132.505124967     A.U. after   12 cycles
 E2(B2PLYPD3) =    -0.1798670310D+00 E(B2PLYPD3) =    -0.13268499199845D+03

 The electronic state is 1-A.
 Alpha  occ. eigenvalues --  -14.84115 -10.66136 -10.64586  -1.04071  -0.91599
 Alpha  occ. eigenvalues --   -0.61133  -0.58515  -0.53324  -0.44716  -0.39407
 Alpha  occ. eigenvalues --   -0.38721
 Alpha virt. eigenvalues --    0.03950   0.08226   0.09352   0.10179   0.10877
 Alpha virt. eigenvalues --    0.11757   0.15566   0.15829   0.16849   0.20031
 Alpha virt. eigenvalues --    0.20241   0.25498   0.32570   0.34366   0.36752

 Mulliken charges:
               1
     1  C   -0.078552
     2  C    0.001923
     3  N   -0.210541
     4  H    0.080254
     5  H    0.097325
     6  H    0.109592
 Sum of Mulliken charges =   0.00000

 Dipole moment (field-independent basis, Debye):
    X=             -4.1375    Y=              0.0273    Z=              0.0034  Tot=              4.1376
 Quadrupole moment (field-independent basis, Debye-Ang):
   XX=            -20.8652   YY=            -17.7308   ZZ=            -17.5240
   XY=             -0.0902   XZ=             -0.0573   YZ=              0.1018

 Normal termination of Gaussian 09 at Thu Aug 27 00:13:03 2020.
