 Gaussian 09, Revision D.01,
 Gaussian 09:  ES64L-G09RevD.01 24-Apr-2013

 --------------------
 #p B2PLYPD3/Def2QZVP
 --------------------

 ------------
 cyanomethane
 ------------
 Symbolic Z-matrix:
 Charge =  0 Multiplicity = 1

                         Standard orientation:
 ---------------------------------------------------------------------
 Center     Atomic      Atomic             Coordinates (Angstroms)
 Number     Number       Type             X           Y           Z
 ---------------------------------------------------------------------
      1          6           0       -1.197448    0.009105    0.027907
      2          6           0        0.266229    0.027479   -0.046099
      3          7           0        1.448804   -0.009215    0.006460
      4          1           0       -1.584084   -0.873185   -0.584521
      5          1           0       -1.668483    0.908901   -0.345787
      6          1           0       -1.301747   -0.190715    0.994240
 ---------------------------------------------------------------------

 SCF Done:  E(RB2PLYPD3) =  -132.518586668     A.U. after   13 cycles
 E2(B2PLYPD3) =    -0.1831045505D+00 E(B2PLYPD3) =    -0.13270169121812D+03

 The electronic state is 1-A.
 Alpha  occ. eigenvalues --  -14.84904 -10.67106 -10.66857  -1.02932  -0.90043
 Alpha  occ. eigenvalues --   -0.59290  -0.56644  -0.52921  -0.44727  -0.38479
 Alpha  occ. eigenvalues --   -0.38172
 Alpha virt. eigenvalues --    0.03708   0.07020   0.08178   0.10260   0.10899
 Alpha virt. eigenvalues --    0.11308   0.14895   0.15526   0.16534   0.20153
 Alpha virt. eigenvalues --    0.20298   0.25269   0.31744   0.33733   0.35942

 Mulliken charges:
               1
     1  C   -0.095912
     2  C    0.001889
     3  N   -0.221712
     4  H    0.094058
     5  H    0.103817
     6  H    0.117860
 Sum of Mulliken charges =   0.00000

 Dipole moment (field-independent basis, Debye):
    X=             -4.1710    Y=             -0.0033    Z=              0.0116  Tot=              4.1711
 Quadrupole moment (field-independent basis, Debye-Ang):
   XX=            -21.1383   YY=            -17.7832   ZZ=            -17.8239
   XY=             -0.0264   XZ=              0.2126   YZ=             -0.0881

 Normal termination of Gaussian 09 at Wed Aug 26 22:40:49 2020.
