 Gaussian 09, Revision D.01,
 Gaussian 09:  ES64L-G09RevD.01 24-Apr-2013

 --------------------
 #p B2PLYPD3/Def2QZVP
 --------------------

 ------------
 cyanomethane
 ------------
 Symbolic Z-matrix:
 Charge =  0 Multiplicity = 1

                         Standard orientation:
 ---------------------------------------------------------------------
 Center     Atomic      Atomic             Coordinates (Angstroms)
 Number     Number       Type             X           Y           Z
 ---------------------------------------------------------------------
      1          6           0       -1.179548    0.024741    0.008986
      2          6           0        0.255023    0.023211    0.005947
      3          7           0        1.424969   -0.025503    0.002850
      4          1           0       -1.314812    1.009063   -0.342226
      5          1           0       -1.592310   -0.283647    0.976238
      6          1           0       -1.520514   -0.834614   -0.743555
 ---------------------------------------------------------------------

 SCF Done:  E(RB2PLYPD3) =  -132.518032203     A.U. after   12 cycles
 E2(B2PLYPD3) =    -0.1825470161D+00 E(B2PLYPD3) =    -0.13270057921877D+03

 The electronic state is 1-A.
 Alpha  occ. eigenvalues --  -14.84313 -10.67775 -10.66394  -1.03408  -0.89815
 Alpha  occ. eigenvalues --   -0.59029  -0.56069  -0.52113  -0.44555  -0.38462
 Alpha  occ. eigenvalues --   -0.38015
 Alpha virt. eigenvalues --    0.03395   0.06654   0.08411   0.10070   0.11101
 Alpha virt. eigenvalues --    0.11775   0.14675   0.15512   0.16191   0.20140
 Alpha virt. eigenvalues --    0.20311   0.25542   0.31659   0.33023   0.35188

 Mulliken charges:
               1
     1  C   -0.112368
     2  C    0.002089
     3  N   -0.218144
     4  H    0.120103
     5  H    0.108904
     6  H    0.099415
 Sum of Mulliken charges =   0.00000

 Dipole moment (field-independent basis, Debye):
    X=             -4.0913    Y=              0.0092    Z=              0.0128  Tot=              4.0913
 Quadrupole moment (field-independent basis, Debye-Ang):
   XX=            -21.6173   YY=            -17.5019   ZZ=            -17.8506
   XY=              0.4123   XZ=             -0.1788   YZ=             -0.1409

 Normal termination of Gaussian 09 at Wed Aug 26 20:19:13 2020.
