 Gaussian 09, Revision D.01,
 Gaussian 09:  ES64L-G09RevD.01 24-Apr-2013

 --------------------
 #p B2PLYPD3/Def2QZVP
 --------------------

 ------------
 cyanomethane
 ------------
 Symbolic Z-matrix:
 Charge =  0 Multiplicity = 1

                         Standard orientation:
 ---------------------------------------------------------------------
 Center     Atomic      Atomic             Coordinates (Angstroms)
 Number     Number       Type             X           Y           Z
 ---------------------------------------------------------------------
      1          6           0       -1.176655    0.011945   -0.011271
      2          6           0        0.275431   -0.061898   -0.024618
      3          7           0        1.454868    0.032902    0.007445
      4          1           0       -1.613844   -0.941600   -0.442049
      5          1           0       -1.659545    0.948531   -0.523776
      6          1           0       -1.503348    0.062473    1.129043
 ---------------------------------------------------------------------

 SCF Done:  E(RB2PLYPD3) =  -132.517742207     A.U. after   13 cycles
 E2(B2PLYPD3) =    -0.1844102951D+00 E(B2PLYPD3) =    -0.13270215250255D+03

 The electronic state is 1-A.
 Alpha  occ. eigenvalues --  -14.85213 -10.69373 -10.67340  -1.03096  -0.87770
 Alpha  occ. eigenvalues --   -0.59467  -0.52782  -0.51426  -0.45063  -0.38399
 Alpha  occ. eigenvalues --   -0.38084
 Alpha virt. eigenvalues --    0.03045   0.05828   0.06800   0.09952   0.11124
 Alpha virt. eigenvalues --    0.11606   0.15253   0.15557   0.17097   0.20077
 Alpha virt. eigenvalues --    0.20328   0.25612   0.31746   0.32476   0.33825

 Mulliken charges:
               1
     1  C   -0.103646
     2  C    0.011742
     3  N   -0.214730
     4  H    0.102649
     5  H    0.104648
     6  H    0.099336
 Sum of Mulliken charges =   0.00000

 Dipole moment (field-independent basis, Debye):
    X=             -4.1299    Y=             -0.0395    Z=              0.0118  Tot=              4.1301
 Quadrupole moment (field-independent basis, Debye-Ang):
   XX=            -21.0929   YY=            -17.8843   ZZ=            -18.0570
   XY=             -0.1982   XZ=              0.0217   YZ=              0.0024

 Normal termination of Gaussian 09 at Wed Aug 26 22:26:07 2020.
