 Gaussian 09, Revision D.01,
 Gaussian 09:  ES64L-G09RevD.01 24-Apr-2013

 --------------------
 #p B2PLYPD3/Def2QZVP
 --------------------

 ------------
 cyanomethane
 ------------
 Symbolic Z-matrix:
 Charge =  0 Multiplicity = 1

                         Standard orientation:
 ---------------------------------------------------------------------
 Center     Atomic      Atomic             Coordinates (Angstroms)
 Number     Number       Type             X           Y           Z
 ---------------------------------------------------------------------
      1          6           0        1.169453   -0.005516   -0.022133
      2          6           0       -0.282060    0.013516   -0.044940
      3          7           0       -1.417917   -0.006173    0.032309
      4          1           0        1.616491   -0.245759    1.029776
      5          1           0        1.514021    0.993975   -0.220552
      6          1           0        1.470551   -0.753001   -0.632945
 ---------------------------------------------------------------------

 SCF Done:  E(RB2PLYPD3) =  -132.525498263     A.U. after   12 cycles
 E2(B2PLYPD3) =    -0.1792569416D+00 E(B2PLYPD3) =    -0.13270475520447D+03

 The electronic state is 1-A.
 Alpha  occ. eigenvalues --  -14.83704 -10.66811 -10.65663  -1.04770  -0.89596
 Alpha  occ. eigenvalues --   -0.59505  -0.56706  -0.51661  -0.44711  -0.39692
 Alpha  occ. eigenvalues --   -0.39021
 Alpha virt. eigenvalues --    0.03527   0.07417   0.09096   0.10179   0.11295
 Alpha virt. eigenvalues --    0.11977   0.15521   0.16106   0.16721   0.19916
 Alpha virt. eigenvalues --    0.20124   0.25528   0.32514   0.33586   0.35987

 Mulliken charges:
               1
     1  C   -0.087773
     2  C   -0.004542
     3  N   -0.197900
     4  H    0.084247
     5  H    0.100490
     6  H    0.105477
 Sum of Mulliken charges =   0.00000

 Dipole moment (field-independent basis, Debye):
    X=              4.0755    Y=              0.0115    Z=             -0.0424  Tot=              4.0758
 Quadrupole moment (field-independent basis, Debye-Ang):
   XX=            -21.0361   YY=            -17.4902   ZZ=            -17.8578
   XY=             -0.0313   XZ=              0.3286   YZ=              0.1193

 Normal termination of Gaussian 09 at Wed Aug 26 21:36:11 2020.
