 Gaussian 09, Revision D.01,
 Gaussian 09:  ES64L-G09RevD.01 24-Apr-2013

 --------------------
 #p B2PLYPD3/Def2QZVP
 --------------------

 ------------
 cyanomethane
 ------------
 Symbolic Z-matrix:
 Charge =  0 Multiplicity = 1

                         Standard orientation:
 ---------------------------------------------------------------------
 Center     Atomic      Atomic             Coordinates (Angstroms)
 Number     Number       Type             X           Y           Z
 ---------------------------------------------------------------------
      1          6           0        1.196450   -0.031080   -0.018173
      2          6           0       -0.264297    0.063682    0.038418
      3          7           0       -1.458654   -0.021274   -0.010563
      4          1           0        1.619286   -0.246682    0.927501
      5          1           0        1.620065    0.954159   -0.308008
      6          1           0        1.378307   -0.754164   -0.667024
 ---------------------------------------------------------------------

 SCF Done:  E(RB2PLYPD3) =  -132.518346758     A.U. after   12 cycles
 E2(B2PLYPD3) =    -0.1841347004D+00 E(B2PLYPD3) =    -0.13270248145826D+03

 The electronic state is 1-A.
 Alpha  occ. eigenvalues --  -14.85422 -10.67560 -10.66251  -1.02453  -0.90223
 Alpha  occ. eigenvalues --   -0.60125  -0.56725  -0.53311  -0.44902  -0.38248
 Alpha  occ. eigenvalues --   -0.38023
 Alpha virt. eigenvalues --    0.03787   0.07022   0.07470   0.10161   0.10975
 Alpha virt. eigenvalues --    0.11030   0.15146   0.15983   0.16216   0.20164
 Alpha virt. eigenvalues --    0.20317   0.25542   0.31942   0.34255   0.35850

 Mulliken charges:
               1
     1  C   -0.076559
     2  C    0.006294
     3  N   -0.225752
     4  H    0.092482
     5  H    0.092521
     6  H    0.111013
 Sum of Mulliken charges =   0.00000

 Dipole moment (field-independent basis, Debye):
    X=              4.1929    Y=              0.0072    Z=              0.0258  Tot=              4.1930
 Quadrupole moment (field-independent basis, Debye-Ang):
   XX=            -20.9395   YY=            -17.7742   ZZ=            -17.9500
   XY=              0.0366   XZ=              0.1342   YZ=              0.0900

 Normal termination of Gaussian 09 at Wed Aug 26 20:41:16 2020.
