 Gaussian 09, Revision D.01,
 Gaussian 09:  ES64L-G09RevD.01 24-Apr-2013

 --------------------
 #p B2PLYPD3/Def2QZVP
 --------------------

 ------------
 cyanomethane
 ------------
 Symbolic Z-matrix:
 Charge =  0 Multiplicity = 1

                         Standard orientation:
 ---------------------------------------------------------------------
 Center     Atomic      Atomic             Coordinates (Angstroms)
 Number     Number       Type             X           Y           Z
 ---------------------------------------------------------------------
      1          6           0       -1.178217   -0.009042   -0.002897
      2          6           0        0.273181   -0.009155    0.009084
      3          7           0        1.430300    0.003857   -0.005876
      4          1           0       -1.509505   -0.046507    1.001101
      5          1           0       -1.559028   -0.810527   -0.562110
      6          1           0       -1.513347    0.939218   -0.434986
 ---------------------------------------------------------------------

 SCF Done:  E(RB2PLYPD3) =  -132.534047006     A.U. after   11 cycles
 E2(B2PLYPD3) =    -0.1804036219D+00 E(B2PLYPD3) =    -0.13271445062837D+03

 The electronic state is 1-A.
 Alpha  occ. eigenvalues --  -14.84171 -10.66406 -10.66208  -1.03978  -0.89925
 Alpha  occ. eigenvalues --   -0.59817  -0.55251  -0.54050  -0.44724  -0.39070
 Alpha  occ. eigenvalues --   -0.38866
 Alpha virt. eigenvalues --    0.03858   0.08028   0.08353   0.10177   0.11272
 Alpha virt. eigenvalues --    0.11517   0.15464   0.15917   0.16495   0.20097
 Alpha virt. eigenvalues --    0.20159   0.25432   0.32910   0.34413   0.35382

 Mulliken charges:
               1
     1  C   -0.080531
     2  C   -0.002320
     3  N   -0.209048
     4  H    0.097492
     5  H    0.099186
     6  H    0.095221
 Sum of Mulliken charges =   0.00000

 Dipole moment (field-independent basis, Debye):
    X=             -4.1329    Y=              0.0024    Z=              0.0160  Tot=              4.1329
 Quadrupole moment (field-independent basis, Debye-Ang):
   XX=            -21.0389   YY=            -17.6893   ZZ=            -17.7055
   XY=             -0.0086   XZ=              0.0388   YZ=              0.0395

 Normal termination of Gaussian 09 at Wed Aug 26 09:54:59 2020.
