 Gaussian 09, Revision D.01,
 Gaussian 09:  ES64L-G09RevD.01 24-Apr-2013

 --------------------
 #p B2PLYPD3/Def2QZVP
 --------------------

 ------------
 cyanomethane
 ------------
 Symbolic Z-matrix:
 Charge =  0 Multiplicity = 1

                         Standard orientation:
 ---------------------------------------------------------------------
 Center     Atomic      Atomic             Coordinates (Angstroms)
 Number     Number       Type             X           Y           Z
 ---------------------------------------------------------------------
      1          6           0        1.184148    0.007003   -0.000032
      2          6           0       -0.272115    0.005988   -0.014270
      3          7           0       -1.436629   -0.005261    0.004456
      4          1           0        1.516178    1.017455   -0.162068
      5          1           0        1.570766   -0.687913   -0.775069
      6          1           0        1.497262   -0.370661    0.991756
 ---------------------------------------------------------------------

 SCF Done:  E(RB2PLYPD3) =  -132.533413404     A.U. after   12 cycles
 E2(B2PLYPD3) =    -0.1814411586D+00 E(B2PLYPD3) =    -0.13271485456279D+03

 The electronic state is 1-A.
 Alpha  occ. eigenvalues --  -14.84367 -10.67446 -10.66448  -1.03649  -0.89211
 Alpha  occ. eigenvalues --   -0.59110  -0.54723  -0.53486  -0.44710  -0.38806
 Alpha  occ. eigenvalues --   -0.38640
 Alpha virt. eigenvalues --    0.03691   0.07551   0.07966   0.10161   0.11219
 Alpha virt. eigenvalues --    0.11468   0.15276   0.15877   0.16167   0.20116
 Alpha virt. eigenvalues --    0.20183   0.25313   0.32501   0.33996   0.34763

 Mulliken charges:
               1
     1  C   -0.095565
     2  C   -0.000827
     3  N   -0.211853
     4  H    0.105611
     5  H    0.100628
     6  H    0.102006
 Sum of Mulliken charges =   0.00000

 Dipole moment (field-independent basis, Debye):
    X=              4.1300    Y=              0.0017    Z=              0.0031  Tot=              4.1300
 Quadrupole moment (field-independent basis, Debye-Ang):
   XX=            -21.2311   YY=            -17.6741   ZZ=            -17.7935
   XY=             -0.0686   XZ=             -0.0088   YZ=             -0.0141

 Normal termination of Gaussian 09 at Wed Aug 26 09:37:23 2020.
