 Gaussian 09, Revision D.01,
 Gaussian 09:  ES64L-G09RevD.01 24-Apr-2013

 --------------------
 #p B2PLYPD3/Def2QZVP
 --------------------

 ------------
 cyanomethane
 ------------
 Symbolic Z-matrix:
 Charge =  0 Multiplicity = 1

                         Standard orientation:
 ---------------------------------------------------------------------
 Center     Atomic      Atomic             Coordinates (Angstroms)
 Number     Number       Type             X           Y           Z
 ---------------------------------------------------------------------
      1          6           0       -1.197706    0.013848    0.006187
      2          6           0        0.297548    0.050283   -0.019374
      3          7           0        1.440542   -0.018526    0.015409
      4          1           0       -1.568970   -0.598922    0.895679
      5          1           0       -1.429219   -0.641720   -0.894031
      6          1           0       -1.684656    0.985537   -0.030386
 ---------------------------------------------------------------------

 SCF Done:  E(RB2PLYPD3) =  -132.528560034     A.U. after   12 cycles
 E2(B2PLYPD3) =    -0.1803511797D+00 E(B2PLYPD3) =    -0.13270891121347D+03

 The electronic state is 1-A.
 Alpha  occ. eigenvalues --  -14.83971 -10.68524 -10.66213  -1.04407  -0.87832
 Alpha  occ. eigenvalues --   -0.58829  -0.54001  -0.51811  -0.44693  -0.39555
 Alpha  occ. eigenvalues --   -0.39034
 Alpha virt. eigenvalues --    0.03437   0.07527   0.08195   0.10280   0.11153
 Alpha virt. eigenvalues --    0.11828   0.14985   0.15583   0.17193   0.19925
 Alpha virt. eigenvalues --    0.20133   0.24721   0.32072   0.32979   0.34936

 Mulliken charges:
               1
     1  C   -0.104723
     2  C   -0.000024
     3  N   -0.200273
     4  H    0.098423
     5  H    0.099658
     6  H    0.106939
 Sum of Mulliken charges =   0.00000

 Dipole moment (field-independent basis, Debye):
    X=             -4.1179    Y=             -0.0071    Z=             -0.0308  Tot=              4.1180
 Quadrupole moment (field-independent basis, Debye-Ang):
   XX=            -21.1137   YY=            -17.6211   ZZ=            -17.9640
   XY=              0.0223   XZ=             -0.1769   YZ=              0.0099

 Normal termination of Gaussian 09 at Wed Aug 26 21:19:19 2020.
