 Gaussian 09, Revision D.01,
 Gaussian 09:  ES64L-G09RevD.01 24-Apr-2013

 --------------------
 #p B2PLYPD3/Def2QZVP
 --------------------

 ------------
 cyanomethane
 ------------
 Symbolic Z-matrix:
 Charge =  0 Multiplicity = 1

                         Standard orientation:
 ---------------------------------------------------------------------
 Center     Atomic      Atomic             Coordinates (Angstroms)
 Number     Number       Type             X           Y           Z
 ---------------------------------------------------------------------
      1          6           0        1.179155    0.004634   -0.002464
      2          6           0       -0.277881   -0.004204   -0.016220
      3          7           0       -1.428658    0.002876    0.010080
      4          1           0        1.548077   -0.092808    1.007830
      5          1           0        1.537142    0.916676   -0.411199
      6          1           0        1.507744   -0.846579   -0.555090
 ---------------------------------------------------------------------

 SCF Done:  E(RB2PLYPD3) =  -132.535250824     A.U. after   11 cycles
 E2(B2PLYPD3) =    -0.1799009833D+00 E(B2PLYPD3) =    -0.13271515180748D+03

 The electronic state is 1-A.
 Alpha  occ. eigenvalues --  -14.84014 -10.66503 -10.66051  -1.04214  -0.89728
 Alpha  occ. eigenvalues --   -0.59638  -0.55114  -0.53946  -0.44705  -0.39216
 Alpha  occ. eigenvalues --   -0.39075
 Alpha virt. eigenvalues --    0.03860   0.08104   0.08468   0.10193   0.11332
 Alpha virt. eigenvalues --    0.11550   0.15440   0.16058   0.16466   0.20053
 Alpha virt. eigenvalues --    0.20128   0.25350   0.32945   0.34643   0.35207

 Mulliken charges:
               1
     1  C   -0.081374
     2  C   -0.003801
     3  N   -0.205569
     4  H    0.094201
     5  H    0.098830
     6  H    0.097714
 Sum of Mulliken charges =   0.00000

 Dipole moment (field-independent basis, Debye):
    X=              4.1233    Y=             -0.0105    Z=             -0.0042  Tot=              4.1233
 Quadrupole moment (field-independent basis, Debye-Ang):
   XX=            -21.0289   YY=            -17.6093   ZZ=            -17.7654
   XY=              0.0206   XZ=              0.1067   YZ=             -0.0032

 Normal termination of Gaussian 09 at Wed Aug 26 10:08:53 2020.
