 Gaussian 09, Revision D.01,
 Gaussian 09:  ES64L-G09RevD.01 24-Apr-2013

 --------------------
 #p B2PLYPD3/Def2QZVP
 --------------------

 ------------
 cyanomethane
 ------------
 Symbolic Z-matrix:
 Charge =  0 Multiplicity = 1

                         Standard orientation:
 ---------------------------------------------------------------------
 Center     Atomic      Atomic             Coordinates (Angstroms)
 Number     Number       Type             X           Y           Z
 ---------------------------------------------------------------------
      1          6           0       -1.192562   -0.001297    0.009642
      2          6           0        0.264745   -0.053050   -0.005912
      3          7           0        1.447244    0.037052    0.001200
      4          1           0       -1.485356   -0.192089    0.982524
      5          1           0       -1.438997   -0.805083   -0.676660
      6          1           0       -1.639451    1.063896   -0.336643
 ---------------------------------------------------------------------

 SCF Done:  E(RB2PLYPD3) =  -132.517286502     A.U. after   13 cycles
 E2(B2PLYPD3) =    -0.1837800883D+00 E(B2PLYPD3) =    -0.13270106659081D+03

 The electronic state is 1-A.
 Alpha  occ. eigenvalues --  -14.84989 -10.67795 -10.67081  -1.02859  -0.89358
 Alpha  occ. eigenvalues --   -0.59038  -0.55325  -0.52497  -0.44768  -0.38302
 Alpha  occ. eigenvalues --   -0.38076
 Alpha virt. eigenvalues --    0.03083   0.06634   0.08201   0.09978   0.10960
 Alpha virt. eigenvalues --    0.11218   0.14859   0.15341   0.16636   0.20201
 Alpha virt. eigenvalues --    0.20306   0.25402   0.31572   0.33290   0.34707

 Mulliken charges:
               1
     1  C   -0.103192
     2  C    0.004016
     3  N   -0.220528
     4  H    0.110437
     5  H    0.108951
     6  H    0.100317
 Sum of Mulliken charges =   0.00000

 Dipole moment (field-independent basis, Debye):
    X=             -4.1288    Y=             -0.0722    Z=              0.0261  Tot=              4.1295
 Quadrupole moment (field-independent basis, Debye-Ang):
   XX=            -21.3579   YY=            -17.7008   ZZ=            -17.8815
   XY=             -0.2922   XZ=             -0.0589   YZ=              0.0462

 Normal termination of Gaussian 09 at Wed Aug 26 22:20:06 2020.
