 Gaussian 09, Revision D.01,
 Gaussian 09:  ES64L-G09RevD.01 24-Apr-2013

 --------------------
 #p B2PLYPD3/Def2QZVP
 --------------------

 ------------
 cyanomethane
 ------------
 Symbolic Z-matrix:
 Charge =  0 Multiplicity = 1

                         Standard orientation:
 ---------------------------------------------------------------------
 Center     Atomic      Atomic             Coordinates (Angstroms)
 Number     Number       Type             X           Y           Z
 ---------------------------------------------------------------------
      1          6           0        1.178048    0.007310   -0.006721
      2          6           0       -0.280602   -0.022569   -0.005972
      3          7           0       -1.428559    0.008145    0.006344
      4          1           0        1.580400   -0.237900    1.014208
      5          1           0        1.491338    1.011089   -0.277351
      6          1           0        1.543504   -0.738654   -0.705109
 ---------------------------------------------------------------------

 SCF Done:  E(RB2PLYPD3) =  -132.534933728     A.U. after   12 cycles
 E2(B2PLYPD3) =    -0.1800483518D+00 E(B2PLYPD3) =    -0.13271498208004D+03

 The electronic state is 1-A.
 Alpha  occ. eigenvalues --  -14.83957 -10.67403 -10.66007  -1.04321  -0.89030
 Alpha  occ. eigenvalues --   -0.59187  -0.54569  -0.53183  -0.44702  -0.39226
 Alpha  occ. eigenvalues --   -0.39077
 Alpha virt. eigenvalues --    0.03704   0.07737   0.08233   0.10195   0.11441
 Alpha virt. eigenvalues --    0.11644   0.15340   0.16123   0.16353   0.20032
 Alpha virt. eigenvalues --    0.20098   0.25336   0.32656   0.34149   0.34812

 Mulliken charges:
               1
     1  C   -0.093387
     2  C   -0.003182
     3  N   -0.203253
     4  H    0.095906
     5  H    0.103215
     6  H    0.100702
 Sum of Mulliken charges =   0.00000

 Dipole moment (field-independent basis, Debye):
    X=              4.1056    Y=             -0.0105    Z=             -0.0100  Tot=              4.1056
 Quadrupole moment (field-independent basis, Debye-Ang):
   XX=            -21.1318   YY=            -17.6501   ZZ=            -17.7661
   XY=             -0.0060   XZ=              0.0816   YZ=              0.0152

 Normal termination of Gaussian 09 at Wed Aug 26 23:57:28 2020.
