 Gaussian 09, Revision D.01,
 Gaussian 09:  ES64L-G09RevD.01 24-Apr-2013

 --------------------
 #p B2PLYPD3/Def2QZVP
 --------------------

 ------------
 cyanomethane
 ------------
 Symbolic Z-matrix:
 Charge =  0 Multiplicity = 1

                         Standard orientation:
 ---------------------------------------------------------------------
 Center     Atomic      Atomic             Coordinates (Angstroms)
 Number     Number       Type             X           Y           Z
 ---------------------------------------------------------------------
      1          6           0       -1.164428    0.001848    0.006160
      2          6           0        0.277864    0.015743    0.017887
      3          7           0        1.431975   -0.002934   -0.008260
      4          1           0       -1.568460   -0.378225    0.973694
      5          1           0       -1.501664   -0.738471   -0.824838
      6          1           0       -1.634316    1.031685   -0.235315
 ---------------------------------------------------------------------

 SCF Done:  E(RB2PLYPD3) =  -132.528141257     A.U. after   12 cycles
 E2(B2PLYPD3) =    -0.1813054871D+00 E(B2PLYPD3) =    -0.13270944674434D+03

 The electronic state is 1-A.
 Alpha  occ. eigenvalues --  -14.84247 -10.68609 -10.66294  -1.04190  -0.88326
 Alpha  occ. eigenvalues --   -0.59457  -0.53147  -0.52235  -0.44865  -0.38982
 Alpha  occ. eigenvalues --   -0.38734
 Alpha virt. eigenvalues --    0.03413   0.06845   0.07334   0.10134   0.11566
 Alpha virt. eigenvalues --    0.11849   0.15375   0.16017   0.16740   0.20059
 Alpha virt. eigenvalues --    0.20113   0.25598   0.32247   0.33130   0.34231

 Mulliken charges:
               1
     1  C   -0.101805
     2  C    0.003706
     3  N   -0.204255
     4  H    0.102969
     5  H    0.099282
     6  H    0.100104
 Sum of Mulliken charges =   0.00000

 Dipole moment (field-independent basis, Debye):
    X=             -4.0987    Y=             -0.0150    Z=              0.0122  Tot=              4.0988
 Quadrupole moment (field-independent basis, Debye-Ang):
   XX=            -21.1158   YY=            -17.7889   ZZ=            -17.8385
   XY=             -0.0322   XZ=              0.0183   YZ=             -0.0392

 Normal termination of Gaussian 09 at Wed Aug 26 13:37:23 2020.
