 Gaussian 09, Revision D.01,
 Gaussian 09:  ES64L-G09RevD.01 24-Apr-2013

 --------------------
 #p B2PLYPD3/Def2QZVP
 --------------------

 ------------
 cyanomethane
 ------------
 Symbolic Z-matrix:
 Charge =  0 Multiplicity = 1

                         Standard orientation:
 ---------------------------------------------------------------------
 Center     Atomic      Atomic             Coordinates (Angstroms)
 Number     Number       Type             X           Y           Z
 ---------------------------------------------------------------------
      1          6           0        1.161056    0.038983    0.015399
      2          6           0       -0.264468    0.001833   -0.042683
      3          7           0       -1.426707   -0.008215    0.013053
      4          1           0        1.511533    1.026313   -0.109298
      5          1           0        1.640087   -0.733091   -0.780620
      6          1           0        1.455799   -0.480614    0.962254
 ---------------------------------------------------------------------

 SCF Done:  E(RB2PLYPD3) =  -132.522136210     A.U. after   12 cycles
 E2(B2PLYPD3) =    -0.1819854557D+00 E(B2PLYPD3) =    -0.13270412166544D+03

 The electronic state is 1-A.
 Alpha  occ. eigenvalues --  -14.84356 -10.67984 -10.66345  -1.03819  -0.89244
 Alpha  occ. eigenvalues --   -0.59552  -0.55981  -0.51094  -0.44804  -0.38914
 Alpha  occ. eigenvalues --   -0.38070
 Alpha virt. eigenvalues --    0.03428   0.06356   0.07850   0.10063   0.11124
 Alpha virt. eigenvalues --    0.12124   0.15269   0.15722   0.16782   0.19989
 Alpha virt. eigenvalues --    0.20271   0.25912   0.31233   0.33450   0.35280

 Mulliken charges:
               1
     1  C   -0.098017
     2  C    0.004273
     3  N   -0.211159
     4  H    0.114308
     5  H    0.088060
     6  H    0.102534
 Sum of Mulliken charges =   0.00000

 Dipole moment (field-independent basis, Debye):
    X=              4.1015    Y=             -0.0227    Z=              0.0244  Tot=              4.1016
 Quadrupole moment (field-independent basis, Debye-Ang):
   XX=            -21.2457   YY=            -17.4620   ZZ=            -18.0765
   XY=             -0.1893   XZ=              0.0312   YZ=             -0.1214

 Normal termination of Gaussian 09 at Wed Aug 26 23:33:13 2020.
