 Gaussian 09, Revision D.01,
 Gaussian 09:  ES64L-G09RevD.01 24-Apr-2013

 --------------------
 #p B2PLYPD3/Def2QZVP
 --------------------

 ------------
 cyanomethane
 ------------
 Symbolic Z-matrix:
 Charge =  0 Multiplicity = 1

                         Standard orientation:
 ---------------------------------------------------------------------
 Center     Atomic      Atomic             Coordinates (Angstroms)
 Number     Number       Type             X           Y           Z
 ---------------------------------------------------------------------
      1          6           0        1.181010   -0.019599   -0.003302
      2          6           0       -0.292674    0.029267    0.020148
      3          7           0       -1.439049   -0.011943   -0.008784
      4          1           0        1.552974   -0.836322   -0.574838
      5          1           0        1.601455   -0.058820    0.998654
      6          1           0        1.588899    0.920737   -0.463400
 ---------------------------------------------------------------------

 SCF Done:  E(RB2PLYPD3) =  -132.534162459     A.U. after   12 cycles
 E2(B2PLYPD3) =    -0.1799807664D+00 E(B2PLYPD3) =    -0.13271414322578D+03

 The electronic state is 1-A.
 Alpha  occ. eigenvalues --  -14.84142 -10.67310 -10.66257  -1.04448  -0.88754
 Alpha  occ. eigenvalues --   -0.59958  -0.54153  -0.52672  -0.44869  -0.39486
 Alpha  occ. eigenvalues --   -0.39247
 Alpha virt. eigenvalues --    0.03715   0.07819   0.08062   0.10185   0.11397
 Alpha virt. eigenvalues --    0.11596   0.15357   0.16286   0.17002   0.20013
 Alpha virt. eigenvalues --    0.20044   0.25165   0.32523   0.34145   0.35276

 Mulliken charges:
               1
     1  C   -0.077553
     2  C   -0.000190
     3  N   -0.201222
     4  H    0.097992
     5  H    0.092785
     6  H    0.088188
 Sum of Mulliken charges =   0.00000

 Dipole moment (field-independent basis, Debye):
    X=              4.1263    Y=              0.0179    Z=              0.0121  Tot=              4.1263
 Quadrupole moment (field-independent basis, Debye-Ang):
   XX=            -20.8184   YY=            -17.8120   ZZ=            -17.8007
   XY=             -0.0366   XZ=             -0.0265   YZ=              0.0540

 Normal termination of Gaussian 09 at Wed Aug 26 14:44:29 2020.
