 Gaussian 09, Revision D.01,
 Gaussian 09:  ES64L-G09RevD.01 24-Apr-2013

 --------------------
 #p B2PLYPD3/Def2QZVP
 --------------------

 ------------
 cyanomethane
 ------------
 Symbolic Z-matrix:
 Charge =  0 Multiplicity = 1

                         Standard orientation:
 ---------------------------------------------------------------------
 Center     Atomic      Atomic             Coordinates (Angstroms)
 Number     Number       Type             X           Y           Z
 ---------------------------------------------------------------------
      1          6           0       -1.136394   -0.000555   -0.041061
      2          6           0        0.268298    0.038561   -0.005303
      3          7           0        1.425643   -0.025836    0.005155
      4          1           0       -1.519975    1.054976    0.029842
      5          1           0       -1.586323   -0.500326    0.968255
      6          1           0       -1.664628   -0.601831   -0.755998
 ---------------------------------------------------------------------

 SCF Done:  E(RB2PLYPD3) =  -132.518802894     A.U. after   12 cycles
 E2(B2PLYPD3) =    -0.1820512630D+00 E(B2PLYPD3) =    -0.13270085415662D+03

 The electronic state is 1-A.
 Alpha  occ. eigenvalues --  -14.84481 -10.67954 -10.66421  -1.04209  -0.89227
 Alpha  occ. eigenvalues --   -0.61638  -0.54343  -0.50662  -0.45083  -0.38967
 Alpha  occ. eigenvalues --   -0.38109
 Alpha virt. eigenvalues --    0.03270   0.06184   0.07186   0.09864   0.11488
 Alpha virt. eigenvalues --    0.12346   0.15501   0.16049   0.17942   0.20041
 Alpha virt. eigenvalues --    0.20435   0.26284   0.31713   0.33003   0.35273

 Mulliken charges:
               1
     1  C   -0.083443
     2  C    0.011674
     3  N   -0.206705
     4  H    0.095850
     5  H    0.079093
     6  H    0.103531
 Sum of Mulliken charges =   0.00000

 Dipole moment (field-independent basis, Debye):
    X=             -4.1158    Y=              0.0143    Z=              0.0127  Tot=              4.1158
 Quadrupole moment (field-independent basis, Debye-Ang):
   XX=            -20.7705   YY=            -17.6910   ZZ=            -18.1374
   XY=              0.3043   XZ=             -0.0675   YZ=              0.1478

 Normal termination of Gaussian 09 at Wed Aug 26 18:31:14 2020.
