 Gaussian 09, Revision D.01,
 Gaussian 09:  ES64L-G09RevD.01 24-Apr-2013

 --------------------
 #p B2PLYPD3/Def2QZVP
 --------------------

 ------------
 cyanomethane
 ------------
 Symbolic Z-matrix:
 Charge =  0 Multiplicity = 1

                         Standard orientation:
 ---------------------------------------------------------------------
 Center     Atomic      Atomic             Coordinates (Angstroms)
 Number     Number       Type             X           Y           Z
 ---------------------------------------------------------------------
      1          6           0       -1.180694   -0.002109   -0.000832
      2          6           0        0.279727    0.010909    0.000834
      3          7           0        1.439156   -0.009464   -0.001035
      4          1           0       -1.505073    1.023776   -0.171337
      5          1           0       -1.565452   -0.350273    0.946289
      6          1           0       -1.597762   -0.660055   -0.767719
 ---------------------------------------------------------------------

 SCF Done:  E(RB2PLYPD3) =  -132.534668660     A.U. after   12 cycles
 E2(B2PLYPD3) =    -0.1809058931D+00 E(B2PLYPD3) =    -0.13271557455297D+03

 The electronic state is 1-A.
 Alpha  occ. eigenvalues --  -14.84361 -10.67119 -10.66451  -1.03919  -0.89218
 Alpha  occ. eigenvalues --   -0.59889  -0.54186  -0.53541  -0.44822  -0.38969
 Alpha  occ. eigenvalues --   -0.38960
 Alpha virt. eigenvalues --    0.03755   0.07648   0.08021   0.10166   0.11334
 Alpha virt. eigenvalues --    0.11456   0.15348   0.16074   0.16678   0.20079
 Alpha virt. eigenvalues --    0.20151   0.25292   0.32641   0.34595   0.34717

 Mulliken charges:
               1
     1  C   -0.081660
     2  C   -0.000077
     3  N   -0.208443
     4  H    0.098353
     5  H    0.096000
     6  H    0.095827
 Sum of Mulliken charges =   0.00000

 Dipole moment (field-independent basis, Debye):
    X=             -4.1407    Y=              0.0086    Z=              0.0102  Tot=              4.1407
 Quadrupole moment (field-independent basis, Debye-Ang):
   XX=            -20.9647   YY=            -17.7107   ZZ=            -17.8523
   XY=              0.1350   XZ=             -0.0040   YZ=             -0.0094

 Normal termination of Gaussian 09 at Thu Aug 27 00:12:53 2020.
