 Gaussian 09, Revision D.01,
 Gaussian 09:  ES64L-G09RevD.01 24-Apr-2013

 --------------------
 #p B2PLYPD3/Def2QZVP
 --------------------

 ------------
 cyanomethane
 ------------
 Symbolic Z-matrix:
 Charge =  0 Multiplicity = 1

                         Standard orientation:
 ---------------------------------------------------------------------
 Center     Atomic      Atomic             Coordinates (Angstroms)
 Number     Number       Type             X           Y           Z
 ---------------------------------------------------------------------
      1          6           0        1.169312    0.006682    0.010597
      2          6           0       -0.281290   -0.015679   -0.004883
      3          7           0       -1.431363    0.009183    0.001884
      4          1           0        1.584802    1.022355   -0.172104
      5          1           0        1.544390   -0.654420   -0.804125
      6          1           0        1.562211   -0.378235    0.928758
 ---------------------------------------------------------------------

 SCF Done:  E(RB2PLYPD3) =  -132.534569177     A.U. after   12 cycles
 E2(B2PLYPD3) =    -0.1802738323D+00 E(B2PLYPD3) =    -0.13271484300893D+03

 The electronic state is 1-A.
 Alpha  occ. eigenvalues --  -14.84127 -10.67304 -10.66170  -1.04335  -0.89073
 Alpha  occ. eigenvalues --   -0.60034  -0.53984  -0.53078  -0.44842  -0.39232
 Alpha  occ. eigenvalues --   -0.39035
 Alpha virt. eigenvalues --    0.03703   0.07583   0.07972   0.10152   0.11497
 Alpha virt. eigenvalues --    0.11674   0.15484   0.16096   0.16918   0.20066
 Alpha virt. eigenvalues --    0.20082   0.25508   0.32756   0.34072   0.34921

 Mulliken charges:
               1
     1  C   -0.082542
     2  C   -0.000072
     3  N   -0.203426
     4  H    0.096164
     5  H    0.092306
     6  H    0.097571
 Sum of Mulliken charges =   0.00000

 Dipole moment (field-independent basis, Debye):
    X=              4.1184    Y=             -0.0281    Z=             -0.0027  Tot=              4.1185
 Quadrupole moment (field-independent basis, Debye-Ang):
   XX=            -20.9274   YY=            -17.7383   ZZ=            -17.8097
   XY=              0.0442   XZ=              0.0156   YZ=             -0.0369

 Normal termination of Gaussian 09 at Wed Aug 26 13:53:23 2020.
