 Gaussian 09, Revision D.01,
 Gaussian 09:  ES64L-G09RevD.01 24-Apr-2013

 --------------------
 #p B2PLYPD3/Def2QZVP
 --------------------

 ------------
 cyanomethane
 ------------
 Symbolic Z-matrix:
 Charge =  0 Multiplicity = 1

                         Standard orientation:
 ---------------------------------------------------------------------
 Center     Atomic      Atomic             Coordinates (Angstroms)
 Number     Number       Type             X           Y           Z
 ---------------------------------------------------------------------
      1          6           0        1.178277    0.023703   -0.008341
      2          6           0       -0.274636    0.059841    0.024460
      3          7           0       -1.449947   -0.027463   -0.010286
      4          1           0        1.578633   -0.329242    0.978902
      5          1           0        1.655052    0.881255   -0.316497
      6          1           0        1.494104   -0.861036   -0.687121
 ---------------------------------------------------------------------

 SCF Done:  E(RB2PLYPD3) =  -132.524121155     A.U. after   12 cycles
 E2(B2PLYPD3) =    -0.1830741184D+00 E(B2PLYPD3) =    -0.13270719527370D+03

 The electronic state is 1-A.
 Alpha  occ. eigenvalues --  -14.85015 -10.67583 -10.67168  -1.03252  -0.89049
 Alpha  occ. eigenvalues --   -0.60796  -0.54991  -0.51533  -0.45019  -0.38781
 Alpha  occ. eigenvalues --   -0.38118
 Alpha virt. eigenvalues --    0.03357   0.06687   0.07665   0.10122   0.10847
 Alpha virt. eigenvalues --    0.11734   0.15317   0.15917   0.17131   0.20055
 Alpha virt. eigenvalues --    0.20282   0.25495   0.32369   0.32816   0.35162

 Mulliken charges:
               1
     1  C   -0.080138
     2  C    0.009351
     3  N   -0.215860
     4  H    0.091568
     5  H    0.103580
     6  H    0.091499
 Sum of Mulliken charges =   0.00000

 Dipole moment (field-independent basis, Debye):
    X=              4.1630    Y=             -0.0044    Z=              0.0190  Tot=              4.1630
 Quadrupole moment (field-independent basis, Debye-Ang):
   XX=            -20.8665   YY=            -17.7683   ZZ=            -18.0663
   XY=             -0.1329   XZ=             -0.0153   YZ=             -0.1072

 Normal termination of Gaussian 09 at Wed Aug 26 22:39:58 2020.
