 Gaussian 09, Revision D.01,
 Gaussian 09:  ES64L-G09RevD.01 24-Apr-2013

 --------------------
 #p B2PLYPD3/Def2QZVP
 --------------------

 ------------
 cyanomethane
 ------------
 Symbolic Z-matrix:
 Charge =  0 Multiplicity = 1

                         Standard orientation:
 ---------------------------------------------------------------------
 Center     Atomic      Atomic             Coordinates (Angstroms)
 Number     Number       Type             X           Y           Z
 ---------------------------------------------------------------------
      1          6           0       -1.194638   -0.033455    0.025796
      2          6           0        0.256712    0.082443   -0.010232
      3          7           0        1.445725   -0.039736   -0.004192
      4          1           0       -1.512113    0.987852   -0.245550
      5          1           0       -1.406862   -0.301064    0.944358
      6          1           0       -1.573550   -0.702573   -0.762843
 ---------------------------------------------------------------------

 SCF Done:  E(RB2PLYPD3) =  -132.514947508     A.U. after   13 cycles
 E2(B2PLYPD3) =    -0.1841218395D+00 E(B2PLYPD3) =    -0.13269906934771D+03

 The electronic state is 1-A.
 Alpha  occ. eigenvalues --  -14.85196 -10.67251 -10.66456  -1.02543  -0.90329
 Alpha  occ. eigenvalues --   -0.59458  -0.57146  -0.53269  -0.44759  -0.38255
 Alpha  occ. eigenvalues --   -0.37800
 Alpha virt. eigenvalues --    0.03580   0.06994   0.07924   0.09891   0.10828
 Alpha virt. eigenvalues --    0.11145   0.14948   0.15381   0.16612   0.20218
 Alpha virt. eigenvalues --    0.20312   0.25753   0.32243   0.33625   0.35712

 Mulliken charges:
               1
     1  C   -0.094436
     2  C    0.005649
     3  N   -0.225819
     4  H    0.097163
     5  H    0.115249
     6  H    0.102193
 Sum of Mulliken charges =   0.00000

 Dipole moment (field-independent basis, Debye):
    X=             -4.1387    Y=              0.0511    Z=             -0.0096  Tot=              4.1390
 Quadrupole moment (field-independent basis, Debye-Ang):
   XX=            -21.2897   YY=            -17.8427   ZZ=            -17.6785
   XY=              0.1703   XZ=              0.1876   YZ=             -0.0542

 Normal termination of Gaussian 09 at Wed Aug 26 22:26:47 2020.
