 Gaussian 09, Revision D.01,
 Gaussian 09:  ES64L-G09RevD.01 24-Apr-2013

 --------------------
 #p B2PLYPD3/Def2QZVP
 --------------------

 ------------
 cyanomethane
 ------------
 Symbolic Z-matrix:
 Charge =  0 Multiplicity = 1

                         Standard orientation:
 ---------------------------------------------------------------------
 Center     Atomic      Atomic             Coordinates (Angstroms)
 Number     Number       Type             X           Y           Z
 ---------------------------------------------------------------------
      1          6           0       -1.184468    0.003910    0.002403
      2          6           0        0.283316    0.014494   -0.002157
      3          7           0        1.435272   -0.005218    0.001387
      4          1           0       -1.547380   -0.198088    0.998181
      5          1           0       -1.513691   -0.841154   -0.648930
      6          1           0       -1.578918    0.965343   -0.360433
 ---------------------------------------------------------------------

 SCF Done:  E(RB2PLYPD3) =  -132.534834369     A.U. after   12 cycles
 E2(B2PLYPD3) =    -0.1803726540D+00 E(B2PLYPD3) =    -0.13271520702277D+03

 The electronic state is 1-A.
 Alpha  occ. eigenvalues --  -14.84097 -10.67526 -10.66195  -1.04163  -0.88859
 Alpha  occ. eigenvalues --   -0.59238  -0.54107  -0.53386  -0.44725  -0.39194
 Alpha  occ. eigenvalues --   -0.39036
 Alpha virt. eigenvalues --    0.03695   0.07878   0.08015   0.10202   0.11349
 Alpha virt. eigenvalues --    0.11568   0.15269   0.16066   0.16457   0.20035
 Alpha virt. eigenvalues --    0.20114   0.25141   0.32527   0.34090   0.34812

 Mulliken charges:
               1
     1  C   -0.092247
     2  C   -0.002323
     3  N   -0.204771
     4  H    0.099584
     5  H    0.098659
     6  H    0.101098
 Sum of Mulliken charges =   0.00000

 Dipole moment (field-independent basis, Debye):
    X=             -4.1213    Y=             -0.0070    Z=              0.0127  Tot=              4.1213
 Quadrupole moment (field-independent basis, Debye-Ang):
   XX=            -21.1042   YY=            -17.6541   ZZ=            -17.8239
   XY=              0.0159   XZ=             -0.0519   YZ=             -0.0253

 Normal termination of Gaussian 09 at Thu Aug 27 00:08:43 2020.
