 Gaussian 09, Revision D.01,
 Gaussian 09:  ES64L-G09RevD.01 24-Apr-2013

 --------------------
 #p B2PLYPD3/Def2QZVP
 --------------------

 ------------
 cyanomethane
 ------------
 Symbolic Z-matrix:
 Charge =  0 Multiplicity = 1

                         Standard orientation:
 ---------------------------------------------------------------------
 Center     Atomic      Atomic             Coordinates (Angstroms)
 Number     Number       Type             X           Y           Z
 ---------------------------------------------------------------------
      1          6           0       -1.171402    0.013988    0.004481
      2          6           0        0.281750   -0.002756   -0.011264
      3          7           0        1.428459   -0.001329    0.005636
      4          1           0       -1.537339    1.039482   -0.026714
      5          1           0       -1.563770   -0.525063    0.911921
      6          1           0       -1.560193   -0.572508   -0.883960
 ---------------------------------------------------------------------

 SCF Done:  E(RB2PLYPD3) =  -132.533527471     A.U. after   11 cycles
 E2(B2PLYPD3) =    -0.1801760760D+00 E(B2PLYPD3) =    -0.13271370354722D+03

 The electronic state is 1-A.
 Alpha  occ. eigenvalues --  -14.83969 -10.67857 -10.66013  -1.04431  -0.88694
 Alpha  occ. eigenvalues --   -0.59357  -0.54178  -0.52536  -0.44763  -0.39285
 Alpha  occ. eigenvalues --   -0.39008
 Alpha virt. eigenvalues --    0.03620   0.07490   0.07906   0.10168   0.11498
 Alpha virt. eigenvalues --    0.11807   0.15378   0.16123   0.16599   0.20008
 Alpha virt. eigenvalues --    0.20097   0.25426   0.32580   0.33659   0.34754

 Mulliken charges:
               1
     1  C   -0.094821
     2  C   -0.001430
     3  N   -0.201461
     4  H    0.104246
     5  H    0.097678
     6  H    0.095788
 Sum of Mulliken charges =   0.00000

 Dipole moment (field-independent basis, Debye):
    X=             -4.0995    Y=             -0.0089    Z=             -0.0081  Tot=              4.0995
 Quadrupole moment (field-independent basis, Debye-Ang):
   XX=            -21.1005   YY=            -17.6400   ZZ=            -17.8477
   XY=              0.0616   XZ=             -0.0356   YZ=             -0.0123

 Normal termination of Gaussian 09 at Thu Aug 27 00:07:36 2020.
