 Gaussian 09, Revision D.01,
 Gaussian 09:  ES64L-G09RevD.01 24-Apr-2013

 --------------------
 #p B2PLYPD3/Def2QZVP
 --------------------

 ------------
 cyanomethane
 ------------
 Symbolic Z-matrix:
 Charge =  0 Multiplicity = 1

                         Standard orientation:
 ---------------------------------------------------------------------
 Center     Atomic      Atomic             Coordinates (Angstroms)
 Number     Number       Type             X           Y           Z
 ---------------------------------------------------------------------
      1          6           0        1.192035    0.019568   -0.015540
      2          6           0       -0.282220   -0.006500    0.037021
      3          7           0       -1.408854    0.003197   -0.021519
      4          1           0        1.498819    0.994103   -0.354141
      5          1           0        1.482572   -0.867306   -0.689920
      6          1           0        1.421697   -0.227591    1.065809
 ---------------------------------------------------------------------

 SCF Done:  E(RB2PLYPD3) =  -132.526343816     A.U. after   12 cycles
 E2(B2PLYPD3) =    -0.1788741984D+00 E(B2PLYPD3) =    -0.13270521801481D+03

 The electronic state is 1-A.
 Alpha  occ. eigenvalues --  -14.83065 -10.68232 -10.65137  -1.04920  -0.88573
 Alpha  occ. eigenvalues --   -0.57414  -0.54703  -0.53073  -0.44290  -0.39631
 Alpha  occ. eigenvalues --   -0.39206
 Alpha virt. eigenvalues --    0.03516   0.08114   0.08625   0.10171   0.11622
 Alpha virt. eigenvalues --    0.12031   0.14931   0.15068   0.16429   0.19977
 Alpha virt. eigenvalues --    0.20081   0.25019   0.32392   0.32840   0.34749

 Mulliken charges:
               1
     1  C   -0.128733
     2  C   -0.008352
     3  N   -0.194119
     4  H    0.116417
     5  H    0.108105
     6  H    0.106682
 Sum of Mulliken charges =   0.00000

 Dipole moment (field-independent basis, Debye):
    X=              4.0174    Y=             -0.0123    Z=              0.0425  Tot=              4.0176
 Quadrupole moment (field-independent basis, Debye-Ang):
   XX=            -21.7597   YY=            -17.4177   ZZ=            -17.6062
   XY=              0.0343   XZ=             -0.1750   YZ=             -0.0514

 Normal termination of Gaussian 09 at Wed Aug 26 21:35:56 2020.
