 Gaussian 09, Revision D.01,
 Gaussian 09:  ES64L-G09RevD.01 24-Apr-2013

 --------------------
 #p B2PLYPD3/Def2QZVP
 --------------------

 ------------
 cyanomethane
 ------------
 Symbolic Z-matrix:
 Charge =  0 Multiplicity = 1

                         Standard orientation:
 ---------------------------------------------------------------------
 Center     Atomic      Atomic             Coordinates (Angstroms)
 Number     Number       Type             X           Y           Z
 ---------------------------------------------------------------------
      1          6           0       -1.178206   -0.008614   -0.003525
      2          6           0        0.281796    0.001488   -0.019401
      3          7           0        1.427247    0.000013    0.011907
      4          1           0       -1.556041    0.028871    1.010020
      5          1           0       -1.529498   -0.876626   -0.465128
      6          1           0       -1.526726    0.890413   -0.490687
 ---------------------------------------------------------------------

 SCF Done:  E(RB2PLYPD3) =  -132.534928203     A.U. after   11 cycles
 E2(B2PLYPD3) =    -0.1794641588D+00 E(B2PLYPD3) =    -0.13271439236218D+03

 The electronic state is 1-A.
 Alpha  occ. eigenvalues --  -14.83896 -10.66483 -10.65933  -1.04432  -0.89652
 Alpha  occ. eigenvalues --   -0.59722  -0.55277  -0.53571  -0.44710  -0.39413
 Alpha  occ. eigenvalues --   -0.39190
 Alpha virt. eigenvalues --    0.03857   0.08126   0.08607   0.10207   0.11337
 Alpha virt. eigenvalues --    0.11647   0.15455   0.16194   0.16535   0.20009
 Alpha virt. eigenvalues --    0.20111   0.25312   0.32974   0.34512   0.35403

 Mulliken charges:
               1
     1  C   -0.079338
     2  C   -0.004427
     3  N   -0.202518
     4  H    0.092198
     5  H    0.099035
     6  H    0.095050
 Sum of Mulliken charges =   0.00000

 Dipole moment (field-independent basis, Debye):
    X=             -4.1182    Y=              0.0057    Z=             -0.0042  Tot=              4.1182
 Quadrupole moment (field-independent basis, Debye-Ang):
   XX=            -20.9754   YY=            -17.5936   ZZ=            -17.7791
   XY=             -0.0126   XZ=             -0.1261   YZ=              0.0320

 Normal termination of Gaussian 09 at Wed Aug 26 13:19:29 2020.
