 Gaussian 09, Revision D.01,
 Gaussian 09:  ES64L-G09RevD.01 24-Apr-2013

 --------------------
 #p B2PLYPD3/Def2QZVP
 --------------------

 ------------
 cyanomethane
 ------------
 Symbolic Z-matrix:
 Charge =  0 Multiplicity = 1

                         Standard orientation:
 ---------------------------------------------------------------------
 Center     Atomic      Atomic             Coordinates (Angstroms)
 Number     Number       Type             X           Y           Z
 ---------------------------------------------------------------------
      1          6           0        1.169899   -0.008046    0.019350
      2          6           0       -0.273542    0.005364   -0.044265
      3          7           0       -1.443162   -0.002389    0.020484
      4          1           0        1.568303    1.030795   -0.058862
      5          1           0        1.584785   -0.555634   -0.813132
      6          1           0        1.570898   -0.442350    0.878099
 ---------------------------------------------------------------------

 SCF Done:  E(RB2PLYPD3) =  -132.530709357     A.U. after   12 cycles
 E2(B2PLYPD3) =    -0.1819664883D+00 E(B2PLYPD3) =    -0.13271267584482D+03

 The electronic state is 1-A.
 Alpha  occ. eigenvalues --  -14.84807 -10.66859 -10.66687  -1.03579  -0.89636
 Alpha  occ. eigenvalues --   -0.61064  -0.54184  -0.53366  -0.45015  -0.38780
 Alpha  occ. eigenvalues --   -0.38621
 Alpha virt. eigenvalues --    0.03748   0.07295   0.07560   0.10049   0.11350
 Alpha virt. eigenvalues --    0.11419   0.15555   0.16106   0.17021   0.20143
 Alpha virt. eigenvalues --    0.20198   0.25738   0.32663   0.34250   0.35278

 Mulliken charges:
               1
     1  C   -0.066369
     2  C    0.005865
     3  N   -0.213196
     4  H    0.089764
     5  H    0.088754
     6  H    0.095180
 Sum of Mulliken charges =   0.00000

 Dipole moment (field-independent basis, Debye):
    X=              4.1548    Y=             -0.0131    Z=             -0.0275  Tot=              4.1549
 Quadrupole moment (field-independent basis, Debye-Ang):
   XX=            -20.7589   YY=            -17.8116   ZZ=            -17.9042
   XY=             -0.0551   XZ=              0.0905   YZ=             -0.0274

 Normal termination of Gaussian 09 at Wed Aug 26 15:50:10 2020.
