 Gaussian 09, Revision D.01,
 Gaussian 09:  ES64L-G09RevD.01 24-Apr-2013

 --------------------
 #p B2PLYPD3/Def2QZVP
 --------------------

 ------------
 cyanomethane
 ------------
 Symbolic Z-matrix:
 Charge =  0 Multiplicity = 1

                         Standard orientation:
 ---------------------------------------------------------------------
 Center     Atomic      Atomic             Coordinates (Angstroms)
 Number     Number       Type             X           Y           Z
 ---------------------------------------------------------------------
      1          6           0       -1.193935   -0.006067    0.012992
      2          6           0        0.290811    0.027555   -0.013427
      3          7           0        1.432388   -0.007034    0.005421
      4          1           0       -1.513641   -0.223541    0.950002
      5          1           0       -1.470844   -0.824347   -0.652325
      6          1           0       -1.623493    0.968198   -0.333009
 ---------------------------------------------------------------------

 SCF Done:  E(RB2PLYPD3) =  -132.531050305     A.U. after   12 cycles
 E2(B2PLYPD3) =    -0.1792615721D+00 E(B2PLYPD3) =    -0.13271031187752D+03

 The electronic state is 1-A.
 Alpha  occ. eigenvalues --  -14.83789 -10.66919 -10.65907  -1.04512  -0.89211
 Alpha  occ. eigenvalues --   -0.59190  -0.54616  -0.53761  -0.44627  -0.39544
 Alpha  occ. eigenvalues --   -0.39382
 Alpha virt. eigenvalues --    0.03798   0.08163   0.08805   0.10248   0.11374
 Alpha virt. eigenvalues --    0.11518   0.15208   0.15989   0.16574   0.19989
 Alpha virt. eigenvalues --    0.20069   0.24859   0.32401   0.34408   0.35182

 Mulliken charges:
               1
     1  C   -0.090321
     2  C   -0.006060
     3  N   -0.200282
     4  H    0.101612
     5  H    0.098452
     6  H    0.096600
 Sum of Mulliken charges =   0.00000

 Dipole moment (field-independent basis, Debye):
    X=             -4.1147    Y=             -0.0163    Z=              0.0125  Tot=              4.1147
 Quadrupole moment (field-independent basis, Debye-Ang):
   XX=            -21.0680   YY=            -17.5826   ZZ=            -17.7746
   XY=             -0.0170   XZ=             -0.0757   YZ=             -0.0108

 Normal termination of Gaussian 09 at Wed Aug 26 13:55:57 2020.
