 Gaussian 09, Revision D.01,
 Gaussian 09:  ES64L-G09RevD.01 24-Apr-2013

 --------------------
 #p B2PLYPD3/Def2QZVP
 --------------------

 ------------
 cyanomethane
 ------------
 Symbolic Z-matrix:
 Charge =  0 Multiplicity = 1

                         Standard orientation:
 ---------------------------------------------------------------------
 Center     Atomic      Atomic             Coordinates (Angstroms)
 Number     Number       Type             X           Y           Z
 ---------------------------------------------------------------------
      1          6           0       -1.187827   -0.004695    0.002786
      2          6           0        0.279569    0.008508   -0.012637
      3          7           0        1.437292   -0.005761    0.006898
      4          1           0       -1.511840    1.001957   -0.091829
      5          1           0       -1.554565   -0.408142    0.904583
      6          1           0       -1.545092   -0.576370   -0.801930
 ---------------------------------------------------------------------

 SCF Done:  E(RB2PLYPD3) =  -132.533659639     A.U. after   11 cycles
 E2(B2PLYPD3) =    -0.1803294873D+00 E(B2PLYPD3) =    -0.13271398912653D+03

 The electronic state is 1-A.
 Alpha  occ. eigenvalues --  -14.84252 -10.66340 -10.66187  -1.03936  -0.89900
 Alpha  occ. eigenvalues --   -0.59819  -0.54878  -0.54641  -0.44743  -0.39104
 Alpha  occ. eigenvalues --   -0.39050
 Alpha virt. eigenvalues --    0.03908   0.08228   0.08453   0.10205   0.11255
 Alpha virt. eigenvalues --    0.11315   0.15385   0.16025   0.16530   0.20107
 Alpha virt. eigenvalues --    0.20125   0.25150   0.32811   0.35018   0.35305

 Mulliken charges:
               1
     1  C   -0.074281
     2  C   -0.002726
     3  N   -0.208866
     4  H    0.095376
     5  H    0.095107
     6  H    0.095389
 Sum of Mulliken charges =   0.00000

 Dipole moment (field-independent basis, Debye):
    X=             -4.1477    Y=              0.0087    Z=             -0.0092  Tot=              4.1477
 Quadrupole moment (field-independent basis, Debye-Ang):
   XX=            -20.9454   YY=            -17.6991   ZZ=            -17.7348
   XY=              0.0615   XZ=             -0.0481   YZ=              0.0060

 Normal termination of Gaussian 09 at Wed Aug 26 10:25:28 2020.
