 Gaussian 09, Revision D.01,
 Gaussian 09:  ES64L-G09RevD.01 24-Apr-2013

 --------------------
 #p B2PLYPD3/Def2QZVP
 --------------------

 ------------
 cyanomethane
 ------------
 Symbolic Z-matrix:
 Charge =  0 Multiplicity = 1

                         Standard orientation:
 ---------------------------------------------------------------------
 Center     Atomic      Atomic             Coordinates (Angstroms)
 Number     Number       Type             X           Y           Z
 ---------------------------------------------------------------------
      1          6           0        1.173417   -0.004303    0.000749
      2          6           0       -0.276374   -0.004603   -0.015405
      3          7           0       -1.439106    0.002498    0.002909
      4          1           0        1.576478    1.015376   -0.224280
      5          1           0        1.619134   -0.712286   -0.685697
      6          1           0        1.495871   -0.267138    0.977551
 ---------------------------------------------------------------------

 SCF Done:  E(RB2PLYPD3) =  -132.533434811     A.U. after   12 cycles
 E2(B2PLYPD3) =    -0.1812141143D+00 E(B2PLYPD3) =    -0.13271464892486D+03

 The electronic state is 1-A.
 Alpha  occ. eigenvalues --  -14.84484 -10.67006 -10.66556  -1.03844  -0.89406
 Alpha  occ. eigenvalues --   -0.60318  -0.54110  -0.53483  -0.44892  -0.38913
 Alpha  occ. eigenvalues --   -0.38820
 Alpha virt. eigenvalues --    0.03744   0.07439   0.07887   0.10164   0.11377
 Alpha virt. eigenvalues --    0.11479   0.15459   0.16110   0.16799   0.20124
 Alpha virt. eigenvalues --    0.20143   0.25487   0.32584   0.34405   0.34970

 Mulliken charges:
               1
     1  C   -0.076744
     2  C    0.001881
     3  N   -0.209881
     4  H    0.093483
     5  H    0.094627
     6  H    0.096634
 Sum of Mulliken charges =   0.00000

 Dipole moment (field-independent basis, Debye):
    X=              4.1474    Y=             -0.0159    Z=              0.0222  Tot=              4.1474
 Quadrupole moment (field-independent basis, Debye-Ang):
   XX=            -20.8811   YY=            -17.7529   ZZ=            -17.8666
   XY=             -0.0204   XZ=             -0.0113   YZ=              0.0045

 Normal termination of Gaussian 09 at Thu Aug 27 00:06:40 2020.
