 Gaussian 09, Revision D.01,
 Gaussian 09:  ES64L-G09RevD.01 24-Apr-2013

 --------------------
 #p B2PLYPD3/Def2QZVP
 --------------------

 ------------
 cyanomethane
 ------------
 Symbolic Z-matrix:
 Charge =  0 Multiplicity = 1

                         Standard orientation:
 ---------------------------------------------------------------------
 Center     Atomic      Atomic             Coordinates (Angstroms)
 Number     Number       Type             X           Y           Z
 ---------------------------------------------------------------------
      1          6           0        1.211176    0.006438    0.013418
      2          6           0       -0.282464   -0.009665   -0.032947
      3          7           0       -1.446560    0.001682   -0.000140
      4          1           0        1.589491    0.952539   -0.430120
      5          1           0        1.666455   -0.905557   -0.495143
      6          1           0        1.297702   -0.039391    1.043416
 ---------------------------------------------------------------------

 SCF Done:  E(RB2PLYPD3) =  -132.524577313     A.U. after   13 cycles
 E2(B2PLYPD3) =    -0.1816473424D+00 E(B2PLYPD3) =    -0.13270622465555D+03

 The electronic state is 1-A.
 Alpha  occ. eigenvalues --  -14.84331 -10.67809 -10.66589  -1.03567  -0.88979
 Alpha  occ. eigenvalues --   -0.58171  -0.55093  -0.53164  -0.44550  -0.38879
 Alpha  occ. eigenvalues --   -0.38752
 Alpha virt. eigenvalues --    0.03632   0.07344   0.08661   0.10315   0.11112
 Alpha virt. eigenvalues --    0.11293   0.14614   0.15235   0.16726   0.20120
 Alpha virt. eigenvalues --    0.20171   0.24617   0.31545   0.34298   0.34908

 Mulliken charges:
               1
     1  C   -0.108721
     2  C   -0.003114
     3  N   -0.212227
     4  H    0.105972
     5  H    0.101468
     6  H    0.116622
 Sum of Mulliken charges =   0.00000

 Dipole moment (field-independent basis, Debye):
    X=              4.1464    Y=              0.0009    Z=              0.0331  Tot=              4.1465
 Quadrupole moment (field-independent basis, Debye-Ang):
   XX=            -21.2992   YY=            -17.6872   ZZ=            -17.8204
   XY=             -0.0340   XZ=             -0.2315   YZ=             -0.0326

 Normal termination of Gaussian 09 at Wed Aug 26 21:20:34 2020.
