 Gaussian 09, Revision D.01,
 Gaussian 09:  ES64L-G09RevD.01 24-Apr-2013

 --------------------
 #p B2PLYPD3/Def2QZVP
 --------------------

 ------------
 cyanomethane
 ------------
 Symbolic Z-matrix:
 Charge =  0 Multiplicity = 1

                         Standard orientation:
 ---------------------------------------------------------------------
 Center     Atomic      Atomic             Coordinates (Angstroms)
 Number     Number       Type             X           Y           Z
 ---------------------------------------------------------------------
      1          6           0        1.184166   -0.008032    0.001420
      2          6           0       -0.278260    0.009240   -0.009800
      3          7           0       -1.436589   -0.005418    0.008689
      4          1           0        1.592280   -0.064352    1.005501
      5          1           0        1.501286    0.953871   -0.445175
      6          1           0        1.527118   -0.858844   -0.570869
 ---------------------------------------------------------------------

 SCF Done:  E(RB2PLYPD3) =  -132.534286128     A.U. after   12 cycles
 E2(B2PLYPD3) =    -0.1808503962D+00 E(B2PLYPD3) =    -0.13271513652464D+03

 The electronic state is 1-A.
 Alpha  occ. eigenvalues --  -14.84259 -10.67273 -10.66349  -1.03912  -0.89161
 Alpha  occ. eigenvalues --   -0.59461  -0.54463  -0.53480  -0.44739  -0.39006
 Alpha  occ. eigenvalues --   -0.38875
 Alpha virt. eigenvalues --    0.03738   0.07732   0.08066   0.10164   0.11311
 Alpha virt. eigenvalues --    0.11472   0.15291   0.15855   0.16565   0.20085
 Alpha virt. eigenvalues --    0.20147   0.25243   0.32589   0.34204   0.34843

 Mulliken charges:
               1
     1  C   -0.089935
     2  C   -0.001107
     3  N   -0.208510
     4  H    0.097993
     5  H    0.099351
     6  H    0.102209
 Sum of Mulliken charges =   0.00000

 Dipole moment (field-independent basis, Debye):
    X=              4.1298    Y=              0.0088    Z=             -0.0023  Tot=              4.1298
 Quadrupole moment (field-independent basis, Debye-Ang):
   XX=            -21.1071   YY=            -17.6601   ZZ=            -17.8274
   XY=             -0.0510   XZ=              0.1382   YZ=              0.0250

 Normal termination of Gaussian 09 at Wed Aug 26 15:23:12 2020.
