 Gaussian 09, Revision D.01,
 Gaussian 09:  ES64L-G09RevD.01 24-Apr-2013

 --------------------
 #p B2PLYPD3/Def2QZVP
 --------------------

 ------------
 cyanomethane
 ------------
 Symbolic Z-matrix:
 Charge =  0 Multiplicity = 1

                         Standard orientation:
 ---------------------------------------------------------------------
 Center     Atomic      Atomic             Coordinates (Angstroms)
 Number     Number       Type             X           Y           Z
 ---------------------------------------------------------------------
      1          6           0        1.173855    0.013374   -0.010787
      2          6           0       -0.277493   -0.022179    0.005143
      3          7           0       -1.440214    0.009779   -0.000218
      4          1           0        1.555883   -0.557375   -0.859449
      5          1           0        1.585583   -0.483912    0.924281
      6          1           0        1.561863    1.025669   -0.029444
 ---------------------------------------------------------------------

 SCF Done:  E(RB2PLYPD3) =  -132.532992412     A.U. after   11 cycles
 E2(B2PLYPD3) =    -0.1814651768D+00 E(B2PLYPD3) =    -0.13271445758876D+03

 The electronic state is 1-A.
 Alpha  occ. eigenvalues --  -14.84511 -10.67531 -10.66580  -1.03831  -0.88984
 Alpha  occ. eigenvalues --   -0.60025  -0.54202  -0.52726  -0.44900  -0.38947
 Alpha  occ. eigenvalues --   -0.38711
 Alpha virt. eigenvalues --    0.03660   0.07275   0.07645   0.10120   0.11334
 Alpha virt. eigenvalues --    0.11560   0.15417   0.16103   0.16731   0.20099
 Alpha virt. eigenvalues --    0.20143   0.25492   0.32443   0.33923   0.34944

 Mulliken charges:
               1
     1  C   -0.082979
     2  C    0.002204
     3  N   -0.209260
     4  H    0.098177
     5  H    0.091543
     6  H    0.100315
 Sum of Mulliken charges =   0.00000

 Dipole moment (field-independent basis, Debye):
    X=              4.1361    Y=             -0.0146    Z=             -0.0007  Tot=              4.1362
 Quadrupole moment (field-independent basis, Debye-Ang):
   XX=            -20.9574   YY=            -17.7807   ZZ=            -17.8668
   XY=              0.0378   XZ=              0.0248   YZ=              0.0429

 Normal termination of Gaussian 09 at Wed Aug 26 22:02:20 2020.
