 Gaussian 09, Revision D.01,
 Gaussian 09:  ES64L-G09RevD.01 24-Apr-2013

 --------------------
 #p B2PLYPD3/Def2QZVP
 --------------------

 ------------
 cyanomethane
 ------------
 Symbolic Z-matrix:
 Charge =  0 Multiplicity = 1

                         Standard orientation:
 ---------------------------------------------------------------------
 Center     Atomic      Atomic             Coordinates (Angstroms)
 Number     Number       Type             X           Y           Z
 ---------------------------------------------------------------------
      1          6           0       -1.180872    0.008844    0.009593
      2          6           0        0.285806   -0.004251   -0.021679
      3          7           0        1.435526   -0.000949    0.009073
      4          1           0       -1.531469    1.026335   -0.104146
      5          1           0       -1.554746   -0.428842    0.927718
      6          1           0       -1.592071   -0.618404   -0.814566
 ---------------------------------------------------------------------

 SCF Done:  E(RB2PLYPD3) =  -132.535214798     A.U. after   11 cycles
 E2(B2PLYPD3) =    -0.1801579114D+00 E(B2PLYPD3) =    -0.13271537270916D+03

 The electronic state is 1-A.
 Alpha  occ. eigenvalues --  -14.84106 -10.67324 -10.66192  -1.04287  -0.88923
 Alpha  occ. eigenvalues --   -0.59585  -0.54375  -0.53019  -0.44785  -0.39301
 Alpha  occ. eigenvalues --   -0.39123
 Alpha virt. eigenvalues --    0.03731   0.07800   0.08115   0.10199   0.11369
 Alpha virt. eigenvalues --    0.11592   0.15330   0.16264   0.16586   0.20024
 Alpha virt. eigenvalues --    0.20087   0.25212   0.32586   0.34303   0.34971

 Mulliken charges:
               1
     1  C   -0.084542
     2  C   -0.001956
     3  N   -0.203358
     4  H    0.100121
     5  H    0.097442
     6  H    0.092292
 Sum of Mulliken charges =   0.00000

 Dipole moment (field-independent basis, Debye):
    X=             -4.1235    Y=             -0.0085    Z=             -0.0078  Tot=              4.1235
 Quadrupole moment (field-independent basis, Debye-Ang):
   XX=            -20.9759   YY=            -17.6779   ZZ=            -17.8440
   XY=              0.0726   XZ=             -0.0394   YZ=             -0.0363

 Normal termination of Gaussian 09 at Thu Aug 27 00:02:40 2020.
