 Gaussian 09, Revision D.01,
 Gaussian 09:  ES64L-G09RevD.01 24-Apr-2013

 --------------------
 #p B2PLYPD3/Def2QZVP
 --------------------

 ------------
 cyanomethane
 ------------
 Symbolic Z-matrix:
 Charge =  0 Multiplicity = 1

                         Standard orientation:
 ---------------------------------------------------------------------
 Center     Atomic      Atomic             Coordinates (Angstroms)
 Number     Number       Type             X           Y           Z
 ---------------------------------------------------------------------
      1          6           0        1.160288   -0.022526   -0.036070
      2          6           0       -0.287189   -0.049196    0.034235
      3          7           0       -1.414568    0.034453   -0.019137
      4          1           0        1.642790    1.100254   -0.153210
      5          1           0        1.557905   -0.647265   -0.670486
      6          1           0        1.462688   -0.263834    0.968663
 ---------------------------------------------------------------------

 SCF Done:  E(RB2PLYPD3) =  -132.512634108     A.U. after   12 cycles
 E2(B2PLYPD3) =    -0.1790369403D+00 E(B2PLYPD3) =    -0.13269167104785D+03

 The electronic state is 1-A.
 Alpha  occ. eigenvalues --  -14.83632 -10.66895 -10.65607  -1.05155  -0.89617
 Alpha  occ. eigenvalues --   -0.60752  -0.55631  -0.51172  -0.44822  -0.39952
 Alpha  occ. eigenvalues --   -0.39061
 Alpha virt. eigenvalues --    0.03141   0.07302   0.09188   0.10078   0.11403
 Alpha virt. eigenvalues --    0.12123   0.15350   0.15674   0.18113   0.19925
 Alpha virt. eigenvalues --    0.20203   0.25786   0.31519   0.33581   0.35691

 Mulliken charges:
               1
     1  C   -0.091529
     2  C    0.002315
     3  N   -0.193358
     4  H    0.087580
     5  H    0.105202
     6  H    0.089791
 Sum of Mulliken charges =   0.00000

 Dipole moment (field-independent basis, Debye):
    X=              4.0536    Y=             -0.1014    Z=              0.1030  Tot=              4.0562
 Quadrupole moment (field-independent basis, Debye-Ang):
   XX=            -20.8867   YY=            -17.6254   ZZ=            -17.7930
   XY=              0.2119   XZ=             -0.0352   YZ=              0.1692

 Normal termination of Gaussian 09 at Wed Aug 26 21:00:52 2020.
