 Gaussian 09, Revision D.01,
 Gaussian 09:  ES64L-G09RevD.01 24-Apr-2013

 --------------------
 #p B2PLYPD3/Def2QZVP
 --------------------

 ------------
 cyanomethane
 ------------
 Symbolic Z-matrix:
 Charge =  0 Multiplicity = 1

                         Standard orientation:
 ---------------------------------------------------------------------
 Center     Atomic      Atomic             Coordinates (Angstroms)
 Number     Number       Type             X           Y           Z
 ---------------------------------------------------------------------
      1          6           0        1.184153    0.002779   -0.001317
      2          6           0       -0.282648   -0.025158   -0.008459
      3          7           0       -1.435934    0.012397    0.005345
      4          1           0        1.539990    1.031578   -0.004145
      5          1           0        1.542214   -0.500697   -0.856761
      6          1           0        1.560310   -0.483387    0.882150
 ---------------------------------------------------------------------

 SCF Done:  E(RB2PLYPD3) =  -132.535191476     A.U. after   11 cycles
 E2(B2PLYPD3) =    -0.1802121700D+00 E(B2PLYPD3) =    -0.13271540364556D+03

 The electronic state is 1-A.
 Alpha  occ. eigenvalues --  -14.84176 -10.66727 -10.66252  -1.04113  -0.89425
 Alpha  occ. eigenvalues --   -0.59681  -0.54612  -0.53894  -0.44764  -0.39188
 Alpha  occ. eigenvalues --   -0.39114
 Alpha virt. eigenvalues --    0.03803   0.07973   0.08392   0.10204   0.11294
 Alpha virt. eigenvalues --    0.11449   0.15375   0.16164   0.16516   0.20057
 Alpha virt. eigenvalues --    0.20106   0.25204   0.32776   0.34698   0.35081

 Mulliken charges:
               1
     1  C   -0.079226
     2  C   -0.002637
     3  N   -0.206085
     4  H    0.096044
     5  H    0.096906
     6  H    0.094998
 Sum of Mulliken charges =   0.00000

 Dipole moment (field-independent basis, Debye):
    X=              4.1346    Y=             -0.0208    Z=             -0.0078  Tot=              4.1346
 Quadrupole moment (field-independent basis, Debye-Ang):
   XX=            -20.9592   YY=            -17.7254   ZZ=            -17.7458
   XY=              0.0519   XZ=              0.0432   YZ=              0.0159

 Normal termination of Gaussian 09 at Wed Aug 26 09:33:59 2020.
