 Gaussian 09, Revision D.01,
 Gaussian 09:  ES64L-G09RevD.01 24-Apr-2013

 --------------------
 #p B2PLYPD3/Def2QZVP
 --------------------

 ------------
 cyanomethane
 ------------
 Symbolic Z-matrix:
 Charge =  0 Multiplicity = 1

                         Standard orientation:
 ---------------------------------------------------------------------
 Center     Atomic      Atomic             Coordinates (Angstroms)
 Number     Number       Type             X           Y           Z
 ---------------------------------------------------------------------
      1          6           0        1.182351   -0.006959    0.010588
      2          6           0       -0.283379   -0.020380    0.000190
      3          7           0       -1.435831    0.016582   -0.001474
      4          1           0        1.613955    0.944581   -0.501966
      5          1           0        1.496688   -0.872847   -0.571706
      6          1           0        1.546337   -0.023769    1.019322
 ---------------------------------------------------------------------

 SCF Done:  E(RB2PLYPD3) =  -132.531348146     A.U. after   12 cycles
 E2(B2PLYPD3) =    -0.1806475448D+00 E(B2PLYPD3) =    -0.13271199569090D+03

 The electronic state is 1-A.
 Alpha  occ. eigenvalues --  -14.84159 -10.67784 -10.66245  -1.04156  -0.88733
 Alpha  occ. eigenvalues --   -0.59206  -0.54718  -0.52318  -0.44761  -0.39209
 Alpha  occ. eigenvalues --   -0.38926
 Alpha virt. eigenvalues --    0.03551   0.07288   0.08289   0.10179   0.11293
 Alpha virt. eigenvalues --    0.11652   0.15275   0.15932   0.16640   0.20024
 Alpha virt. eigenvalues --    0.20127   0.25196   0.32260   0.33684   0.34958

 Mulliken charges:
               1
     1  C   -0.094541
     2  C   -0.001382
     3  N   -0.204631
     4  H    0.093788
     5  H    0.102847
     6  H    0.103920
 Sum of Mulliken charges =   0.00000

 Dipole moment (field-independent basis, Debye):
    X=              4.1128    Y=             -0.0336    Z=              0.0071  Tot=              4.1129
 Quadrupole moment (field-independent basis, Debye-Ang):
   XX=            -21.1109   YY=            -17.7932   ZZ=            -17.7276
   XY=              0.1680   XZ=             -0.0043   YZ=              0.0651

 Normal termination of Gaussian 09 at Wed Aug 26 11:26:17 2020.
