 Gaussian 09, Revision D.01,
 Gaussian 09:  ES64L-G09RevD.01 24-Apr-2013

 --------------------
 #p B2PLYPD3/Def2QZVP
 --------------------

 ------------
 cyanomethane
 ------------
 Symbolic Z-matrix:
 Charge =  0 Multiplicity = 1

                         Standard orientation:
 ---------------------------------------------------------------------
 Center     Atomic      Atomic             Coordinates (Angstroms)
 Number     Number       Type             X           Y           Z
 ---------------------------------------------------------------------
      1          6           0        1.173908   -0.005141   -0.022359
      2          6           0       -0.284084    0.000142    0.031621
      3          7           0       -1.425564   -0.000555   -0.013910
      4          1           0        1.532272    1.021008   -0.028850
      5          1           0        1.549706   -0.531328   -0.806152
      6          1           0        1.558028   -0.455801    0.876798
 ---------------------------------------------------------------------

 SCF Done:  E(RB2PLYPD3) =  -132.532507534     A.U. after   11 cycles
 E2(B2PLYPD3) =    -0.1791189232D+00 E(B2PLYPD3) =    -0.13271162645757D+03

 The electronic state is 1-A.
 Alpha  occ. eigenvalues --  -14.83853 -10.66151 -10.65880  -1.04618  -0.89842
 Alpha  occ. eigenvalues --   -0.60333  -0.55106  -0.53627  -0.44762  -0.39564
 Alpha  occ. eigenvalues --   -0.39297
 Alpha virt. eigenvalues --    0.03897   0.08358   0.08507   0.10173   0.11437
 Alpha virt. eigenvalues --    0.11659   0.15520   0.16053   0.17043   0.20028
 Alpha virt. eigenvalues --    0.20060   0.25442   0.33039   0.34475   0.35671

 Mulliken charges:
               1
     1  C   -0.071950
     2  C   -0.002393
     3  N   -0.200692
     4  H    0.092034
     5  H    0.096033
     6  H    0.086968
 Sum of Mulliken charges =   0.00000

 Dipole moment (field-independent basis, Debye):
    X=              4.1152    Y=             -0.0103    Z=              0.0343  Tot=              4.1153
 Quadrupole moment (field-independent basis, Debye-Ang):
   XX=            -20.8479   YY=            -17.6348   ZZ=            -17.7531
   XY=             -0.0467   XZ=             -0.0391   YZ=              0.0598

 Normal termination of Gaussian 09 at Wed Aug 26 11:31:40 2020.
