 Gaussian 09, Revision D.01,
 Gaussian 09:  ES64L-G09RevD.01 24-Apr-2013

 --------------------
 #p B2PLYPD3/Def2QZVP
 --------------------

 ------------
 cyanomethane
 ------------
 Symbolic Z-matrix:
 Charge =  0 Multiplicity = 1

                         Standard orientation:
 ---------------------------------------------------------------------
 Center     Atomic      Atomic             Coordinates (Angstroms)
 Number     Number       Type             X           Y           Z
 ---------------------------------------------------------------------
      1          6           0        1.187899    0.001764   -0.015838
      2          6           0       -0.275778   -0.007989   -0.023846
      3          7           0       -1.439306    0.008438    0.012743
      4          1           0        1.504482   -0.774423   -0.684838
      5          1           0        1.503722   -0.269127    1.072090
      6          1           0        1.594211    1.021833   -0.238351
 ---------------------------------------------------------------------

 SCF Done:  E(RB2PLYPD3) =  -132.528869396     A.U. after   12 cycles
 E2(B2PLYPD3) =    -0.1817676528D+00 E(B2PLYPD3) =    -0.13271063704888D+03

 The electronic state is 1-A.
 Alpha  occ. eigenvalues --  -14.84379 -10.68167 -10.66498  -1.03656  -0.88668
 Alpha  occ. eigenvalues --   -0.58768  -0.54872  -0.52299  -0.44708  -0.38902
 Alpha  occ. eigenvalues --   -0.38500
 Alpha virt. eigenvalues --    0.03479   0.07089   0.08021   0.10149   0.11097
 Alpha virt. eigenvalues --    0.11633   0.15162   0.15582   0.16444   0.20065
 Alpha virt. eigenvalues --    0.20206   0.25174   0.32124   0.32976   0.34978

 Mulliken charges:
               1
     1  C   -0.104698
     2  C    0.001057
     3  N   -0.210835
     4  H    0.109603
     5  H    0.098836
     6  H    0.106037
 Sum of Mulliken charges =   0.00000

 Dipole moment (field-independent basis, Debye):
    X=              4.1207    Y=             -0.0168    Z=             -0.0059  Tot=              4.1208
 Quadrupole moment (field-independent basis, Debye-Ang):
   XX=            -21.3128   YY=            -17.6722   ZZ=            -17.8449
   XY=              0.1098   XZ=              0.0794   YZ=              0.0701

 Normal termination of Gaussian 09 at Wed Aug 26 12:05:33 2020.
