 Gaussian 09, Revision D.01,
 Gaussian 09:  ES64L-G09RevD.01 24-Apr-2013

 --------------------
 #p B2PLYPD3/Def2QZVP
 --------------------

 ------------
 cyanomethane
 ------------
 Symbolic Z-matrix:
 Charge =  0 Multiplicity = 1

                         Standard orientation:
 ---------------------------------------------------------------------
 Center     Atomic      Atomic             Coordinates (Angstroms)
 Number     Number       Type             X           Y           Z
 ---------------------------------------------------------------------
      1          6           0       -1.145287   -0.008499   -0.021153
      2          6           0        0.246777    0.046647    0.051836
      3          7           0        1.434377   -0.026855   -0.025590
      4          1           0       -1.506939    0.982917   -0.304296
      5          1           0       -1.543236   -0.251690    0.979603
      6          1           0       -1.599405   -0.772128   -0.680273
 ---------------------------------------------------------------------

 SCF Done:  E(RB2PLYPD3) =  -132.523434670     A.U. after   13 cycles
 E2(B2PLYPD3) =    -0.1843017596D+00 E(B2PLYPD3) =    -0.13270773642982D+03

 The electronic state is 1-A.
 Alpha  occ. eigenvalues --  -14.85229 -10.67106 -10.66904  -1.02899  -0.90179
 Alpha  occ. eigenvalues --   -0.61259  -0.54545  -0.53183  -0.45065  -0.37932
 Alpha  occ. eigenvalues --   -0.37755
 Alpha virt. eigenvalues --    0.03493   0.06145   0.07116   0.09791   0.11236
 Alpha virt. eigenvalues --    0.11662   0.15431   0.15833   0.17100   0.20267
 Alpha virt. eigenvalues --    0.20404   0.26654   0.32893   0.34013   0.34575

 Mulliken charges:
               1
     1  C   -0.076635
     2  C    0.009435
     3  N   -0.222378
     4  H    0.098527
     5  H    0.092550
     6  H    0.098501
 Sum of Mulliken charges =   0.00000

 Dipole moment (field-independent basis, Debye):
    X=             -4.1580    Y=              0.0214    Z=              0.0457  Tot=              4.1583
 Quadrupole moment (field-independent basis, Debye-Ang):
   XX=            -20.9311   YY=            -17.7626   ZZ=            -17.9706
   XY=              0.2183   XZ=              0.0985   YZ=             -0.0293

 Normal termination of Gaussian 09 at Wed Aug 26 20:55:20 2020.
