 Gaussian 09, Revision D.01,
 Gaussian 09:  ES64L-G09RevD.01 24-Apr-2013

 --------------------
 #p B2PLYPD3/Def2QZVP
 --------------------

 ------------
 cyanomethane
 ------------
 Symbolic Z-matrix:
 Charge =  0 Multiplicity = 1

                         Standard orientation:
 ---------------------------------------------------------------------
 Center     Atomic      Atomic             Coordinates (Angstroms)
 Number     Number       Type             X           Y           Z
 ---------------------------------------------------------------------
      1          6           0       -1.157854    0.034528   -0.007871
      2          6           0        0.285744   -0.034498   -0.051681
      3          7           0        1.419741    0.007540    0.029691
      4          1           0       -1.480630    1.059355    0.003452
      5          1           0       -1.624580   -0.516699    0.921066
      6          1           0       -1.600318   -0.595614   -0.775037
 ---------------------------------------------------------------------

 SCF Done:  E(RB2PLYPD3) =  -132.527444847     A.U. after   11 cycles
 E2(B2PLYPD3) =    -0.1796491661D+00 E(B2PLYPD3) =    -0.13270709401338D+03

 The electronic state is 1-A.
 Alpha  occ. eigenvalues --  -14.83806 -10.67577 -10.65771  -1.04905  -0.88857
 Alpha  occ. eigenvalues --   -0.59953  -0.55496  -0.50922  -0.44846  -0.39719
 Alpha  occ. eigenvalues --   -0.38925
 Alpha virt. eigenvalues --    0.03440   0.07147   0.08262   0.10118   0.11455
 Alpha virt. eigenvalues --    0.12167   0.15470   0.16127   0.17310   0.19822
 Alpha virt. eigenvalues --    0.20133   0.25870   0.32502   0.33336   0.35528

 Mulliken charges:
               1
     1  C   -0.084703
     2  C    0.000339
     3  N   -0.195998
     4  H    0.106296
     5  H    0.082338
     6  H    0.091728
 Sum of Mulliken charges =   0.00000

 Dipole moment (field-independent basis, Debye):
    X=             -4.0787    Y=             -0.0508    Z=             -0.0492  Tot=              4.0793
 Quadrupole moment (field-independent basis, Debye-Ang):
   XX=            -20.8896   YY=            -17.4401   ZZ=            -18.1037
   XY=              0.1862   XZ=             -0.2093   YZ=              0.0649

 Normal termination of Gaussian 09 at Wed Aug 26 23:34:30 2020.
