 Gaussian 09, Revision D.01,
 Gaussian 09:  ES64L-G09RevD.01 24-Apr-2013

 --------------------
 #p B2PLYPD3/Def2QZVP
 --------------------

 ------------
 cyanomethane
 ------------
 Symbolic Z-matrix:
 Charge =  0 Multiplicity = 1

                         Standard orientation:
 ---------------------------------------------------------------------
 Center     Atomic      Atomic             Coordinates (Angstroms)
 Number     Number       Type             X           Y           Z
 ---------------------------------------------------------------------
      1          6           0       -1.167040    0.007005   -0.006256
      2          6           0        0.284494   -0.015047   -0.022944
      3          7           0        1.424812    0.006550    0.006567
      4          1           0       -1.565045    1.072117   -0.130314
      5          1           0       -1.484584   -0.381493    1.030963
      6          1           0       -1.628779   -0.688223   -0.771417
 ---------------------------------------------------------------------

 SCF Done:  E(RB2PLYPD3) =  -132.529646602     A.U. after   12 cycles
 E2(B2PLYPD3) =    -0.1800878218D+00 E(B2PLYPD3) =    -0.13270973442379D+03

 The electronic state is 1-A.
 Alpha  occ. eigenvalues --  -14.83815 -10.68596 -10.65872  -1.04689  -0.88149
 Alpha  occ. eigenvalues --   -0.59067  -0.53113  -0.52391  -0.44757  -0.39339
 Alpha  occ. eigenvalues --   -0.39070
 Alpha virt. eigenvalues --    0.03453   0.07391   0.07480   0.10184   0.11680
 Alpha virt. eigenvalues --    0.11979   0.15329   0.15934   0.16861   0.19989
 Alpha virt. eigenvalues --    0.20065   0.25465   0.32386   0.33206   0.34252

 Mulliken charges:
               1
     1  C   -0.106153
     2  C    0.000381
     3  N   -0.197506
     4  H    0.103104
     5  H    0.099310
     6  H    0.100863
 Sum of Mulliken charges =   0.00000

 Dipole moment (field-independent basis, Debye):
    X=             -4.0770    Y=             -0.0203    Z=              0.0078  Tot=              4.0770
 Quadrupole moment (field-independent basis, Debye-Ang):
   XX=            -21.1628   YY=            -17.6673   ZZ=            -17.8395
   XY=             -0.0006   XZ=              0.0224   YZ=              0.0156

 Normal termination of Gaussian 09 at Wed Aug 26 15:15:50 2020.
