 Gaussian 09, Revision D.01,
 Gaussian 09:  ES64L-G09RevD.01 24-Apr-2013

 --------------------
 #p B2PLYPD3/Def2QZVP
 --------------------

 ------------
 cyanomethane
 ------------
 Symbolic Z-matrix:
 Charge =  0 Multiplicity = 1

                         Standard orientation:
 ---------------------------------------------------------------------
 Center     Atomic      Atomic             Coordinates (Angstroms)
 Number     Number       Type             X           Y           Z
 ---------------------------------------------------------------------
      1          6           0        1.172936   -0.003007   -0.009369
      2          6           0       -0.280401    0.018641   -0.009164
      3          7           0       -1.420972   -0.004490   -0.000404
      4          1           0        1.564147   -0.594327   -0.864264
      5          1           0        1.429700   -0.521008    0.980271
      6          1           0        1.597742    1.052960   -0.001978
 ---------------------------------------------------------------------

 SCF Done:  E(RB2PLYPD3) =  -132.530840426     A.U. after   12 cycles
 E2(B2PLYPD3) =    -0.1798904507D+00 E(B2PLYPD3) =    -0.13271073087715D+03

 The electronic state is 1-A.
 Alpha  occ. eigenvalues --  -14.83677 -10.68326 -10.65743  -1.04608  -0.88462
 Alpha  occ. eigenvalues --   -0.58709  -0.53616  -0.52881  -0.44628  -0.39315
 Alpha  occ. eigenvalues --   -0.39020
 Alpha virt. eigenvalues --    0.03527   0.07604   0.07805   0.10199   0.11635
 Alpha virt. eigenvalues --    0.11959   0.15233   0.15684   0.16678   0.20015
 Alpha virt. eigenvalues --    0.20087   0.25387   0.32433   0.33189   0.34477

 Mulliken charges:
               1
     1  C   -0.111924
     2  C   -0.001625
     3  N   -0.199112
     4  H    0.106439
     5  H    0.103415
     6  H    0.102807
 Sum of Mulliken charges =   0.00000

 Dipole moment (field-independent basis, Debye):
    X=              4.0728    Y=             -0.0041    Z=              0.0108  Tot=              4.0728
 Quadrupole moment (field-independent basis, Debye-Ang):
   XX=            -21.3210   YY=            -17.6709   ZZ=            -17.6998
   XY=              0.0370   XZ=             -0.0876   YZ=              0.0375

 Normal termination of Gaussian 09 at Wed Aug 26 15:49:21 2020.
