 Gaussian 09, Revision D.01,
 Gaussian 09:  ES64L-G09RevD.01 24-Apr-2013

 --------------------
 #p B2PLYPD3/Def2QZVP
 --------------------

 ------------
 cyanomethane
 ------------
 Symbolic Z-matrix:
 Charge =  0 Multiplicity = 1

                         Standard orientation:
 ---------------------------------------------------------------------
 Center     Atomic      Atomic             Coordinates (Angstroms)
 Number     Number       Type             X           Y           Z
 ---------------------------------------------------------------------
      1          6           0        1.185145   -0.026978    0.000915
      2          6           0       -0.297405    0.032571    0.049615
      3          7           0       -1.442403   -0.008944   -0.021395
      4          1           0        1.490251   -0.867359   -0.601897
      5          1           0        1.658375   -0.041261    0.973995
      6          1           0        1.621752    0.937666   -0.525518
 ---------------------------------------------------------------------

 SCF Done:  E(RB2PLYPD3) =  -132.529230841     A.U. after   12 cycles
 E2(B2PLYPD3) =    -0.1804101138D+00 E(B2PLYPD3) =    -0.13270964095507D+03

 The electronic state is 1-A.
 Alpha  occ. eigenvalues --  -14.84205 -10.68093 -10.66361  -1.04446  -0.88117
 Alpha  occ. eigenvalues --   -0.59562  -0.54320  -0.51447  -0.44886  -0.39552
 Alpha  occ. eigenvalues --   -0.39128
 Alpha virt. eigenvalues --    0.03469   0.07266   0.08073   0.10228   0.11269
 Alpha virt. eigenvalues --    0.11736   0.15170   0.16394   0.16858   0.19919
 Alpha virt. eigenvalues --    0.20066   0.25097   0.31848   0.33438   0.35330

 Mulliken charges:
               1
     1  C   -0.088348
     2  C    0.002123
     3  N   -0.200530
     4  H    0.103487
     5  H    0.097221
     6  H    0.086048
 Sum of Mulliken charges =   0.00000

 Dipole moment (field-independent basis, Debye):
    X=              4.1140    Y=             -0.0009    Z=              0.0320  Tot=              4.1141
 Quadrupole moment (field-independent basis, Debye-Ang):
   XX=            -20.8771   YY=            -17.8669   ZZ=            -17.8302
   XY=              0.0260   XZ=             -0.0395   YZ=              0.0940

 Normal termination of Gaussian 09 at Wed Aug 26 23:18:36 2020.
