 Gaussian 09, Revision D.01,
 Gaussian 09:  ES64L-G09RevD.01 24-Apr-2013

 --------------------
 #p B2PLYPD3/Def2QZVP
 --------------------

 ------------
 cyanomethane
 ------------
 Symbolic Z-matrix:
 Charge =  0 Multiplicity = 1

                         Standard orientation:
 ---------------------------------------------------------------------
 Center     Atomic      Atomic             Coordinates (Angstroms)
 Number     Number       Type             X           Y           Z
 ---------------------------------------------------------------------
      1          6           0        1.159253   -0.014758    0.010996
      2          6           0       -0.277425    0.018455   -0.014438
      3          7           0       -1.425735   -0.009855    0.009114
      4          1           0        1.602092   -0.055562    1.013410
      5          1           0        1.524964    0.965550   -0.466165
      6          1           0        1.562118   -0.863184   -0.590389
 ---------------------------------------------------------------------

 SCF Done:  E(RB2PLYPD3) =  -132.531879176     A.U. after   12 cycles
 E2(B2PLYPD3) =    -0.1804925124D+00 E(B2PLYPD3) =    -0.13271237168803D+03

 The electronic state is 1-A.
 Alpha  occ. eigenvalues --  -14.84075 -10.67803 -10.66080  -1.04431  -0.88864
 Alpha  occ. eigenvalues --   -0.60071  -0.53559  -0.52663  -0.44858  -0.39165
 Alpha  occ. eigenvalues --   -0.38885
 Alpha virt. eigenvalues --    0.03610   0.07391   0.07475   0.10085   0.11649
 Alpha virt. eigenvalues --    0.11839   0.15529   0.15902   0.17113   0.20055
 Alpha virt. eigenvalues --    0.20110   0.25773   0.32547   0.33638   0.34726

 Mulliken charges:
               1
     1  C   -0.091414
     2  C    0.002463
     3  N   -0.202474
     4  H    0.099356
     5  H    0.092909
     6  H    0.099160
 Sum of Mulliken charges =   0.00000

 Dipole moment (field-independent basis, Debye):
    X=              4.0970    Y=              0.0176    Z=             -0.0075  Tot=              4.0971
 Quadrupole moment (field-independent basis, Debye-Ang):
   XX=            -21.0036   YY=            -17.7544   ZZ=            -17.8037
   XY=             -0.0758   XZ=              0.1103   YZ=              0.0370

 Normal termination of Gaussian 09 at Wed Aug 26 14:42:46 2020.
