 Gaussian 09, Revision D.01,
 Gaussian 09:  ES64L-G09RevD.01 24-Apr-2013

 --------------------
 #p B2PLYPD3/Def2QZVP
 --------------------

 ------------
 cyanomethane
 ------------
 Symbolic Z-matrix:
 Charge =  0 Multiplicity = 1

                         Standard orientation:
 ---------------------------------------------------------------------
 Center     Atomic      Atomic             Coordinates (Angstroms)
 Number     Number       Type             X           Y           Z
 ---------------------------------------------------------------------
      1          6           0        1.174921    0.013023    0.002058
      2          6           0       -0.288362   -0.032090    0.009967
      3          7           0       -1.438810    0.021803   -0.003300
      4          1           0        1.647732    0.918209   -0.464347
      5          1           0        1.496140   -0.869753   -0.593339
      6          1           0        1.608449   -0.086680    1.008635
 ---------------------------------------------------------------------

 SCF Done:  E(RB2PLYPD3) =  -132.532022087     A.U. after   12 cycles
 E2(B2PLYPD3) =    -0.1807047761D+00 E(B2PLYPD3) =    -0.13271272686319D+03

 The electronic state is 1-A.
 Alpha  occ. eigenvalues --  -14.84274 -10.67824 -10.66385  -1.04312  -0.88525
 Alpha  occ. eigenvalues --   -0.59985  -0.53239  -0.52704  -0.44914  -0.39231
 Alpha  occ. eigenvalues --   -0.39073
 Alpha virt. eigenvalues --    0.03575   0.07218   0.07936   0.10113   0.11506
 Alpha virt. eigenvalues --    0.11610   0.15365   0.15872   0.17421   0.20028
 Alpha virt. eigenvalues --    0.20172   0.25373   0.32548   0.33923   0.34618

 Mulliken charges:
               1
     1  C   -0.085267
     2  C    0.002809
     3  N   -0.202997
     4  H    0.095791
     5  H    0.094337
     6  H    0.095328
 Sum of Mulliken charges =   0.00000

 Dipole moment (field-independent basis, Debye):
    X=              4.1216    Y=             -0.0474    Z=              0.0023  Tot=              4.1219
 Quadrupole moment (field-independent basis, Debye-Ang):
   XX=            -20.8602   YY=            -17.8398   ZZ=            -17.8475
   XY=              0.1942   XZ=              0.0135   YZ=              0.0039

 Normal termination of Gaussian 09 at Wed Aug 26 11:50:29 2020.
