 Gaussian 09, Revision D.01,
 Gaussian 09:  ES64L-G09RevD.01 24-Apr-2013

 --------------------
 #p B2PLYPD3/Def2QZVP
 --------------------

 ------------
 cyanomethane
 ------------
 Symbolic Z-matrix:
 Charge =  0 Multiplicity = 1

                         Standard orientation:
 ---------------------------------------------------------------------
 Center     Atomic      Atomic             Coordinates (Angstroms)
 Number     Number       Type             X           Y           Z
 ---------------------------------------------------------------------
      1          6           0       -1.179187    0.010185    0.003776
      2          6           0        0.272761   -0.021601   -0.001714
      3          7           0        1.439941    0.010927   -0.000609
      4          1           0       -1.529692   -0.293530    0.971153
      5          1           0       -1.551264   -0.711483   -0.738074
      6          1           0       -1.560076    0.997025   -0.241188
 ---------------------------------------------------------------------

 SCF Done:  E(RB2PLYPD3) =  -132.533933150     A.U. after   12 cycles
 E2(B2PLYPD3) =    -0.1815745903D+00 E(B2PLYPD3) =    -0.13271550774011D+03

 The electronic state is 1-A.
 Alpha  occ. eigenvalues --  -14.84546 -10.67031 -10.66612  -1.03604  -0.89442
 Alpha  occ. eigenvalues --   -0.59868  -0.54416  -0.53764  -0.44830  -0.38782
 Alpha  occ. eigenvalues --   -0.38670
 Alpha virt. eigenvalues --    0.03751   0.07545   0.07844   0.10131   0.11290
 Alpha virt. eigenvalues --    0.11370   0.15411   0.15915   0.16561   0.20152
 Alpha virt. eigenvalues --    0.20161   0.25456   0.32631   0.34385   0.34887

 Mulliken charges:
               1
     1  C   -0.082348
     2  C    0.000797
     3  N   -0.212541
     4  H    0.098800
     5  H    0.095612
     6  H    0.099681
 Sum of Mulliken charges =   0.00000

 Dipole moment (field-independent basis, Debye):
    X=             -4.1464    Y=             -0.0217    Z=              0.0051  Tot=              4.1464
 Quadrupole moment (field-independent basis, Debye-Ang):
   XX=            -21.0231   YY=            -17.7540   ZZ=            -17.8062
   XY=             -0.0502   XZ=              0.0138   YZ=             -0.0254

 Normal termination of Gaussian 09 at Wed Aug 26 15:37:40 2020.
