 Gaussian 09, Revision D.01,
 Gaussian 09:  ES64L-G09RevD.01 24-Apr-2013

 --------------------
 #p B2PLYPD3/Def2QZVP
 --------------------

 ------------
 cyanomethane
 ------------
 Symbolic Z-matrix:
 Charge =  0 Multiplicity = 1

                         Standard orientation:
 ---------------------------------------------------------------------
 Center     Atomic      Atomic             Coordinates (Angstroms)
 Number     Number       Type             X           Y           Z
 ---------------------------------------------------------------------
      1          6           0       -1.191242    0.040431    0.033735
      2          6           0        0.311095   -0.044005   -0.050004
      3          7           0        1.435332    0.012026    0.017152
      4          1           0       -1.523065    1.009512   -0.307890
      5          1           0       -1.528579   -0.273047    0.980917
      6          1           0       -1.714794   -0.799203   -0.695475
 ---------------------------------------------------------------------

 SCF Done:  E(RB2PLYPD3) =  -132.521132831     A.U. after   12 cycles
 E2(B2PLYPD3) =    -0.1789378170D+00 E(B2PLYPD3) =    -0.13270007064785D+03

 The electronic state is 1-A.
 Alpha  occ. eigenvalues --  -14.83610 -10.68437 -10.65766  -1.05231  -0.87686
 Alpha  occ. eigenvalues --   -0.58768  -0.55363  -0.50253  -0.44754  -0.40259
 Alpha  occ. eigenvalues --   -0.39445
 Alpha virt. eigenvalues --    0.03438   0.07115   0.08753   0.10229   0.11259
 Alpha virt. eigenvalues --    0.11987   0.14945   0.16172   0.17354   0.19824
 Alpha virt. eigenvalues --    0.19930   0.24864   0.30646   0.33691   0.35830

 Mulliken charges:
               1
     1  C   -0.096586
     2  C   -0.003097
     3  N   -0.188767
     4  H    0.107713
     5  H    0.104523
     6  H    0.076214
 Sum of Mulliken charges =   0.00000

 Dipole moment (field-independent basis, Debye):
    X=             -4.0713    Y=             -0.0135    Z=              0.0113  Tot=              4.0714
 Quadrupole moment (field-independent basis, Debye-Ang):
   XX=            -20.9797   YY=            -17.6652   ZZ=            -17.9061
   XY=              0.0486   XZ=             -0.0917   YZ=             -0.2243

 Normal termination of Gaussian 09 at Wed Aug 26 18:27:35 2020.
