 Gaussian 09, Revision D.01,
 Gaussian 09:  ES64L-G09RevD.01 24-Apr-2013

 --------------------
 #p B2PLYPD3/Def2QZVP
 --------------------

 ------------
 cyanomethane
 ------------
 Symbolic Z-matrix:
 Charge =  0 Multiplicity = 1

                         Standard orientation:
 ---------------------------------------------------------------------
 Center     Atomic      Atomic             Coordinates (Angstroms)
 Number     Number       Type             X           Y           Z
 ---------------------------------------------------------------------
      1          6           0       -1.167931    0.010410   -0.010439
      2          6           0        0.299387   -0.057154    0.023511
      3          7           0        1.439840    0.022622   -0.018228
      4          1           0       -1.590300    0.863244   -0.462208
      5          1           0       -1.515699    0.060318    0.952040
      6          1           0       -1.761615   -0.801451   -0.440668
 ---------------------------------------------------------------------

 SCF Done:  E(RB2PLYPD3) =  -132.525728376     A.U. after   12 cycles
 E2(B2PLYPD3) =    -0.1796568452D+00 E(B2PLYPD3) =    -0.13270538522098D+03

 The electronic state is 1-A.
 Alpha  occ. eigenvalues --  -14.84275 -10.66432 -10.66076  -1.04789  -0.89650
 Alpha  occ. eigenvalues --   -0.61783  -0.53888  -0.52719  -0.45109  -0.39639
 Alpha  occ. eigenvalues --   -0.39598
 Alpha virt. eigenvalues --    0.03753   0.07531   0.08582   0.10177   0.11528
 Alpha virt. eigenvalues --    0.11659   0.15515   0.16429   0.18063   0.19962
 Alpha virt. eigenvalues --    0.20341   0.25412   0.32684   0.35212   0.35513

 Mulliken charges:
               1
     1  C   -0.050120
     2  C    0.011623
     3  N   -0.199946
     4  H    0.080446
     5  H    0.080888
     6  H    0.077109
 Sum of Mulliken charges =   0.00000

 Dipole moment (field-independent basis, Debye):
    X=             -4.1451    Y=             -0.0048    Z=              0.0762  Tot=              4.1458
 Quadrupole moment (field-independent basis, Debye-Ang):
   XX=            -20.2408   YY=            -17.8919   ZZ=            -17.9283
   XY=             -0.1037   XZ=              0.1041   YZ=             -0.0121

 Normal termination of Gaussian 09 at Wed Aug 26 16:34:15 2020.
