 Gaussian 09, Revision D.01,
 Gaussian 09:  ES64L-G09RevD.01 24-Apr-2013

 --------------------
 #p B2PLYPD3/Def2QZVP
 --------------------

 ------------
 cyanomethane
 ------------
 Symbolic Z-matrix:
 Charge =  0 Multiplicity = 1

                         Standard orientation:
 ---------------------------------------------------------------------
 Center     Atomic      Atomic             Coordinates (Angstroms)
 Number     Number       Type             X           Y           Z
 ---------------------------------------------------------------------
      1          6           0       -1.175396    0.007805    0.002690
      2          6           0        0.292906   -0.016412   -0.036682
      3          7           0        1.439895    0.004035    0.020722
      4          1           0       -1.539003    1.006621   -0.189599
      5          1           0       -1.630963   -0.308419    0.966790
      6          1           0       -1.614358   -0.674808   -0.718290
 ---------------------------------------------------------------------

 SCF Done:  E(RB2PLYPD3) =  -132.533697142     A.U. after   12 cycles
 E2(B2PLYPD3) =    -0.1801614530D+00 E(B2PLYPD3) =    -0.13271385859498D+03

 The electronic state is 1-A.
 Alpha  occ. eigenvalues --  -14.84241 -10.67263 -10.66348  -1.04462  -0.88783
 Alpha  occ. eigenvalues --   -0.60365  -0.53982  -0.52432  -0.44950  -0.39436
 Alpha  occ. eigenvalues --   -0.39260
 Alpha virt. eigenvalues --    0.03665   0.07516   0.08131   0.10172   0.11378
 Alpha virt. eigenvalues --    0.11666   0.15418   0.16483   0.17105   0.19960
 Alpha virt. eigenvalues --    0.20122   0.25272   0.32673   0.34404   0.35002

 Mulliken charges:
               1
     1  C   -0.071473
     2  C    0.001869
     3  N   -0.201340
     4  H    0.094020
     5  H    0.087702
     6  H    0.089222
 Sum of Mulliken charges =   0.00000

 Dipole moment (field-independent basis, Debye):
    X=             -4.1310    Y=             -0.0102    Z=             -0.0288  Tot=              4.1311
 Quadrupole moment (field-independent basis, Debye-Ang):
   XX=            -20.6944   YY=            -17.7545   ZZ=            -17.9423
   XY=              0.0549   XZ=             -0.1551   YZ=              0.0035

 Normal termination of Gaussian 09 at Wed Aug 26 12:26:23 2020.
