 Gaussian 09, Revision D.01,
 Gaussian 09:  ES64L-G09RevD.01 24-Apr-2013

 --------------------
 #p B2PLYPD3/Def2QZVP
 --------------------

 ------------
 cyanomethane
 ------------
 Symbolic Z-matrix:
 Charge =  0 Multiplicity = 1

                         Standard orientation:
 ---------------------------------------------------------------------
 Center     Atomic      Atomic             Coordinates (Angstroms)
 Number     Number       Type             X           Y           Z
 ---------------------------------------------------------------------
      1          6           0        1.178657    0.007493   -0.008708
      2          6           0       -0.265790    0.028879    0.003098
      3          7           0       -1.429369   -0.009215    0.000106
      4          1           0        1.510229   -0.183626    0.990058
      5          1           0        1.584522    0.896812   -0.367457
      6          1           0        1.433629   -0.866913   -0.589680
 ---------------------------------------------------------------------

 SCF Done:  E(RB2PLYPD3) =  -132.531957680     A.U. after   12 cycles
 E2(B2PLYPD3) =    -0.1809989442D+00 E(B2PLYPD3) =    -0.13271295662441D+03

 The electronic state is 1-A.
 Alpha  occ. eigenvalues --  -14.84279 -10.66350 -10.66275  -1.03694  -0.90217
 Alpha  occ. eigenvalues --   -0.59813  -0.55759  -0.54101  -0.44685  -0.38883
 Alpha  occ. eigenvalues --   -0.38559
 Alpha virt. eigenvalues --    0.03857   0.08051   0.08216   0.10178   0.11115
 Alpha virt. eigenvalues --    0.11582   0.15353   0.15724   0.16462   0.20097
 Alpha virt. eigenvalues --    0.20249   0.25546   0.32910   0.34215   0.35482

 Mulliken charges:
               1
     1  C   -0.083752
     2  C   -0.001059
     3  N   -0.213604
     4  H    0.095757
     5  H    0.101950
     6  H    0.100707
 Sum of Mulliken charges =   0.00000

 Dipole moment (field-independent basis, Debye):
    X=              4.1403    Y=             -0.0118    Z=              0.0194  Tot=              4.1404
 Quadrupole moment (field-independent basis, Debye-Ang):
   XX=            -21.1260   YY=            -17.5624   ZZ=            -17.8109
   XY=              0.0163   XZ=              0.0660   YZ=             -0.0269

 Normal termination of Gaussian 09 at Wed Aug 26 12:32:34 2020.
