 Gaussian 09, Revision D.01,
 Gaussian 09:  ES64L-G09RevD.01 24-Apr-2013

 --------------------
 #p B2PLYPD3/Def2QZVP
 --------------------

 ------------
 cyanomethane
 ------------
 Symbolic Z-matrix:
 Charge =  0 Multiplicity = 1

                         Standard orientation:
 ---------------------------------------------------------------------
 Center     Atomic      Atomic             Coordinates (Angstroms)
 Number     Number       Type             X           Y           Z
 ---------------------------------------------------------------------
      1          6           0       -1.170259    0.001038   -0.006984
      2          6           0        0.276346    0.032690   -0.023917
      3          7           0        1.446637   -0.021708    0.012782
      4          1           0       -1.540481    0.938015   -0.454219
      5          1           0       -1.581924   -0.062821    1.091772
      6          1           0       -1.640574   -0.925608   -0.541619
 ---------------------------------------------------------------------

 SCF Done:  E(RB2PLYPD3) =  -132.523533821     A.U. after   12 cycles
 E2(B2PLYPD3) =    -0.1830237856D+00 E(B2PLYPD3) =    -0.13270655760625D+03

 The electronic state is 1-A.
 Alpha  occ. eigenvalues --  -14.84857 -10.68797 -10.66928  -1.03544  -0.88211
 Alpha  occ. eigenvalues --   -0.59665  -0.53524  -0.51437  -0.45014  -0.38658
 Alpha  occ. eigenvalues --   -0.38371
 Alpha virt. eigenvalues --    0.03252   0.06102   0.07290   0.10035   0.11224
 Alpha virt. eigenvalues --    0.11726   0.15339   0.15994   0.16831   0.20036
 Alpha virt. eigenvalues --    0.20263   0.25583   0.32032   0.32969   0.34131

 Mulliken charges:
               1
     1  C   -0.095444
     2  C    0.006663
     3  N   -0.210806
     4  H    0.104207
     5  H    0.096202
     6  H    0.099179
 Sum of Mulliken charges =   0.00000

 Dipole moment (field-independent basis, Debye):
    X=             -4.1249    Y=              0.0347    Z=             -0.0064  Tot=              4.1250
 Quadrupole moment (field-independent basis, Debye-Ang):
   XX=            -21.0329   YY=            -17.8226   ZZ=            -18.0046
   XY=              0.1832   XZ=             -0.0923   YZ=             -0.0410

 Normal termination of Gaussian 09 at Wed Aug 26 13:20:43 2020.
