 Gaussian 09, Revision D.01,
 Gaussian 09:  ES64L-G09RevD.01 24-Apr-2013

 --------------------
 #p B2PLYPD3/Def2QZVP
 --------------------

 ------------
 cyanomethane
 ------------
 Symbolic Z-matrix:
 Charge =  0 Multiplicity = 1

                         Standard orientation:
 ---------------------------------------------------------------------
 Center     Atomic      Atomic             Coordinates (Angstroms)
 Number     Number       Type             X           Y           Z
 ---------------------------------------------------------------------
      1          6           0        1.144359    0.036577    0.014136
      2          6           0       -0.285050   -0.050064    0.024809
      3          7           0       -1.419567    0.019751   -0.021443
      4          1           0        1.576985    1.018857   -0.190585
      5          1           0        1.680653   -0.684988   -0.828377
      6          1           0        1.523477   -0.391208    0.935397
 ---------------------------------------------------------------------

 SCF Done:  E(RB2PLYPD3) =  -132.522046946     A.U. after   12 cycles
 E2(B2PLYPD3) =    -0.1800579395D+00 E(B2PLYPD3) =    -0.13270210488560D+03

 The electronic state is 1-A.
 Alpha  occ. eigenvalues --  -14.83943 -10.68062 -10.65869  -1.05044  -0.88656
 Alpha  occ. eigenvalues --   -0.60451  -0.54492  -0.50592  -0.45000  -0.39627
 Alpha  occ. eigenvalues --   -0.38883
 Alpha virt. eigenvalues --    0.03299   0.06391   0.08020   0.10003   0.11623
 Alpha virt. eigenvalues --    0.12318   0.15584   0.16138   0.17654   0.19897
 Alpha virt. eigenvalues --    0.20166   0.26115   0.31297   0.33876   0.35176

 Mulliken charges:
               1
     1  C   -0.087237
     2  C    0.004242
     3  N   -0.194429
     4  H    0.103011
     5  H    0.078228
     6  H    0.096185
 Sum of Mulliken charges =   0.00000

 Dipole moment (field-independent basis, Debye):
    X=              4.0547    Y=             -0.0236    Z=              0.0675  Tot=              4.0553
 Quadrupole moment (field-independent basis, Debye-Ang):
   XX=            -20.8122   YY=            -17.7471   ZZ=            -17.9306
   XY=              0.0769   XZ=             -0.1725   YZ=             -0.1562

 Normal termination of Gaussian 09 at Wed Aug 26 18:31:19 2020.
