 Gaussian 09, Revision D.01,
 Gaussian 09:  ES64L-G09RevD.01 24-Apr-2013

 --------------------
 #p B2PLYPD3/Def2QZVP
 --------------------

 ------------
 cyanomethane
 ------------
 Symbolic Z-matrix:
 Charge =  0 Multiplicity = 1

                         Standard orientation:
 ---------------------------------------------------------------------
 Center     Atomic      Atomic             Coordinates (Angstroms)
 Number     Number       Type             X           Y           Z
 ---------------------------------------------------------------------
      1          6           0       -1.184016    0.010461   -0.002388
      2          6           0        0.284603   -0.006709   -0.026728
      3          7           0        1.434700    0.004382    0.014785
      4          1           0       -1.552152   -0.135259    1.001357
      5          1           0       -1.523637   -0.835356   -0.563341
      6          1           0       -1.570635    0.917435   -0.366813
 ---------------------------------------------------------------------

 SCF Done:  E(RB2PLYPD3) =  -132.534461536     A.U. after   11 cycles
 E2(B2PLYPD3) =    -0.1799039700D+00 E(B2PLYPD3) =    -0.13271436550586D+03

 The electronic state is 1-A.
 Alpha  occ. eigenvalues --  -14.84099 -10.66529 -10.66179  -1.04241  -0.89534
 Alpha  occ. eigenvalues --   -0.59846  -0.55112  -0.53516  -0.44764  -0.39364
 Alpha  occ. eigenvalues --   -0.39126
 Alpha virt. eigenvalues --    0.03840   0.08096   0.08492   0.10197   0.11224
 Alpha virt. eigenvalues --    0.11564   0.15403   0.16068   0.16779   0.20014
 Alpha virt. eigenvalues --    0.20126   0.25177   0.32840   0.34553   0.35471

 Mulliken charges:
               1
     1  C   -0.075700
     2  C   -0.002640
     3  N   -0.204640
     4  H    0.091121
     5  H    0.094246
     6  H    0.097612
 Sum of Mulliken charges =   0.00000

 Dipole moment (field-independent basis, Debye):
    X=             -4.1343    Y=             -0.0199    Z=             -0.0045  Tot=              4.1344
 Quadrupole moment (field-independent basis, Debye-Ang):
   XX=            -20.9097   YY=            -17.6203   ZZ=            -17.8388
   XY=             -0.0245   XZ=             -0.1356   YZ=             -0.0156

 Normal termination of Gaussian 09 at Wed Aug 26 14:52:35 2020.
