 Gaussian 09, Revision D.01,
 Gaussian 09:  ES64L-G09RevD.01 24-Apr-2013

 --------------------
 #p B2PLYPD3/Def2QZVP
 --------------------

 ------------
 cyanomethane
 ------------
 Symbolic Z-matrix:
 Charge =  0 Multiplicity = 1

                         Standard orientation:
 ---------------------------------------------------------------------
 Center     Atomic      Atomic             Coordinates (Angstroms)
 Number     Number       Type             X           Y           Z
 ---------------------------------------------------------------------
      1          6           0       -1.178234   -0.005883   -0.003023
      2          6           0        0.283957   -0.000217   -0.018590
      3          7           0        1.436115    0.002739    0.011971
      4          1           0       -1.588073    0.016033    1.021162
      5          1           0       -1.526408   -0.888602   -0.478612
      6          1           0       -1.572667    0.889991   -0.496666
 ---------------------------------------------------------------------

 SCF Done:  E(RB2PLYPD3) =  -132.534814176     A.U. after   11 cycles
 E2(B2PLYPD3) =    -0.1802996693D+00 E(B2PLYPD3) =    -0.13271511384498D+03

 The electronic state is 1-A.
 Alpha  occ. eigenvalues --  -14.84193 -10.67076 -10.66269  -1.04215  -0.89154
 Alpha  occ. eigenvalues --   -0.59891  -0.54607  -0.52983  -0.44825  -0.39252
 Alpha  occ. eigenvalues --   -0.39069
 Alpha virt. eigenvalues --    0.03745   0.07652   0.08248   0.10187   0.11312
 Alpha virt. eigenvalues --    0.11609   0.15404   0.16337   0.16614   0.20018
 Alpha virt. eigenvalues --    0.20126   0.25279   0.32711   0.34349   0.35082

 Mulliken charges:
               1
     1  C   -0.079212
     2  C   -0.001278
     3  N   -0.204604
     4  H    0.092013
     5  H    0.098696
     6  H    0.094384
 Sum of Mulliken charges =   0.00000

 Dipole moment (field-independent basis, Debye):
    X=             -4.1309    Y=             -0.0043    Z=             -0.0091  Tot=              4.1309
 Quadrupole moment (field-independent basis, Debye-Ang):
   XX=            -20.9086   YY=            -17.6942   ZZ=            -17.8526
   XY=             -0.0517   XZ=             -0.1228   YZ=              0.0310

 Normal termination of Gaussian 09 at Wed Aug 26 09:31:53 2020.
