 Gaussian 09, Revision D.01,
 Gaussian 09:  ES64L-G09RevD.01 24-Apr-2013

 --------------------
 #p B2PLYPD3/Def2QZVP
 --------------------

 ------------
 cyanomethane
 ------------
 Symbolic Z-matrix:
 Charge =  0 Multiplicity = 1

                         Standard orientation:
 ---------------------------------------------------------------------
 Center     Atomic      Atomic             Coordinates (Angstroms)
 Number     Number       Type             X           Y           Z
 ---------------------------------------------------------------------
      1          6           0        1.191953    0.012551    0.014603
      2          6           0       -0.275783   -0.004651   -0.023483
      3          7           0       -1.436962   -0.001672    0.006784
      4          1           0        1.489020    1.030633   -0.116030
      5          1           0        1.587410   -0.637560   -0.814896
      6          1           0        1.485281   -0.428769    0.936719
 ---------------------------------------------------------------------

 SCF Done:  E(RB2PLYPD3) =  -132.532441371     A.U. after   12 cycles
 E2(B2PLYPD3) =    -0.1810471662D+00 E(B2PLYPD3) =    -0.13271348853753D+03

 The electronic state is 1-A.
 Alpha  occ. eigenvalues --  -14.84260 -10.67216 -10.66356  -1.03733  -0.89312
 Alpha  occ. eigenvalues --   -0.58831  -0.55543  -0.53293  -0.44647  -0.38971
 Alpha  occ. eigenvalues --   -0.38736
 Alpha virt. eigenvalues --    0.03745   0.07712   0.08331   0.10188   0.11127
 Alpha virt. eigenvalues --    0.11451   0.15151   0.15930   0.16055   0.20095
 Alpha virt. eigenvalues --    0.20166   0.25126   0.32317   0.34112   0.35176

 Mulliken charges:
               1
     1  C   -0.094828
     2  C   -0.002836
     3  N   -0.210865
     4  H    0.107475
     5  H    0.095717
     6  H    0.105337
 Sum of Mulliken charges =   0.00000

 Dipole moment (field-independent basis, Debye):
    X=              4.1286    Y=             -0.0086    Z=             -0.0008  Tot=              4.1286
 Quadrupole moment (field-independent basis, Debye-Ang):
   XX=            -21.2470   YY=            -17.6128   ZZ=            -17.8028
   XY=             -0.0916   XZ=             -0.0197   YZ=             -0.0675

 Normal termination of Gaussian 09 at Wed Aug 26 16:02:38 2020.
