 Gaussian 09, Revision D.01,
 Gaussian 09:  ES64L-G09RevD.01 24-Apr-2013

 --------------------
 #p B2PLYPD3/Def2QZVP
 --------------------

 ------------
 cyanomethane
 ------------
 Symbolic Z-matrix:
 Charge =  0 Multiplicity = 1

                         Standard orientation:
 ---------------------------------------------------------------------
 Center     Atomic      Atomic             Coordinates (Angstroms)
 Number     Number       Type             X           Y           Z
 ---------------------------------------------------------------------
      1          6           0        1.150481    0.024388    0.042678
      2          6           0       -0.255424    0.002609   -0.086900
      3          7           0       -1.434609   -0.001200    0.037467
      4          1           0        1.599736    1.060505   -0.168300
      5          1           0        1.561661   -0.763159   -0.804475
      6          1           0        1.510526   -0.450925    0.975837
 ---------------------------------------------------------------------

 SCF Done:  E(RB2PLYPD3) =  -132.513222614     A.U. after   12 cycles
 E2(B2PLYPD3) =    -0.1846860693D+00 E(B2PLYPD3) =    -0.13269790868346D+03

 The electronic state is 1-A.
 Alpha  occ. eigenvalues --  -14.85121 -10.68835 -10.67042  -1.03120  -0.88759
 Alpha  occ. eigenvalues --   -0.60003  -0.54184  -0.51050  -0.45055  -0.38280
 Alpha  occ. eigenvalues --   -0.37487
 Alpha virt. eigenvalues --    0.03211   0.05635   0.06313   0.09794   0.11175
 Alpha virt. eigenvalues --    0.11873   0.15071   0.15607   0.17354   0.20188
 Alpha virt. eigenvalues --    0.20263   0.26507   0.30594   0.33119   0.34922

 Mulliken charges:
               1
     1  C   -0.106499
     2  C    0.016426
     3  N   -0.217908
     4  H    0.109914
     5  H    0.087271
     6  H    0.110796
 Sum of Mulliken charges =   0.00000

 Dipole moment (field-independent basis, Debye):
    X=              4.0884    Y=             -0.0269    Z=             -0.0157  Tot=              4.0885
 Quadrupole moment (field-independent basis, Debye-Ang):
   XX=            -21.2574   YY=            -17.6904   ZZ=            -18.0861
   XY=             -0.0331   XZ=              0.1849   YZ=             -0.1528

 Normal termination of Gaussian 09 at Wed Aug 26 18:53:07 2020.
