 Gaussian 09, Revision D.01,
 Gaussian 09:  ES64L-G09RevD.01 24-Apr-2013

 --------------------
 #p B2PLYPD3/Def2QZVP
 --------------------

 ------------
 cyanomethane
 ------------
 Symbolic Z-matrix:
 Charge =  0 Multiplicity = 1

                         Standard orientation:
 ---------------------------------------------------------------------
 Center     Atomic      Atomic             Coordinates (Angstroms)
 Number     Number       Type             X           Y           Z
 ---------------------------------------------------------------------
      1          6           0        1.176358   -0.007758    0.008466
      2          6           0       -0.287712   -0.021118   -0.005389
      3          7           0       -1.438082    0.017358   -0.001306
      4          1           0        1.663659    0.963652   -0.324558
      5          1           0        1.552415   -0.748958   -0.621144
      6          1           0        1.518621   -0.162945    0.936389
 ---------------------------------------------------------------------

 SCF Done:  E(RB2PLYPD3) =  -132.526796832     A.U. after   12 cycles
 E2(B2PLYPD3) =    -0.1799470892D+00 E(B2PLYPD3) =    -0.13270674392150D+03

 The electronic state is 1-A.
 Alpha  occ. eigenvalues --  -14.84254 -10.66336 -10.66179  -1.04351  -0.89847
 Alpha  occ. eigenvalues --   -0.60733  -0.55465  -0.52696  -0.44920  -0.39461
 Alpha  occ. eigenvalues --   -0.39196
 Alpha virt. eigenvalues --    0.03724   0.07613   0.08801   0.10207   0.11260
 Alpha virt. eigenvalues --    0.11596   0.15518   0.16292   0.17187   0.20005
 Alpha virt. eigenvalues --    0.20161   0.25257   0.32575   0.34463   0.35808

 Mulliken charges:
               1
     1  C   -0.064058
     2  C    0.001330
     3  N   -0.203935
     4  H    0.083093
     5  H    0.090166
     6  H    0.093405
 Sum of Mulliken charges =   0.00000

 Dipole moment (field-independent basis, Debye):
    X=              4.1428    Y=             -0.0518    Z=              0.0260  Tot=              4.1432
 Quadrupole moment (field-independent basis, Debye-Ang):
   XX=            -20.6408   YY=            -17.7854   ZZ=            -17.8063
   XY=              0.1340   XZ=             -0.0089   YZ=              0.0429

 Normal termination of Gaussian 09 at Wed Aug 26 14:24:03 2020.
