 Gaussian 09, Revision D.01,
 Gaussian 09:  ES64L-G09RevD.01 24-Apr-2013

 --------------------
 #p B2PLYPD3/Def2QZVP
 --------------------

 ------------
 cyanomethane
 ------------
 Symbolic Z-matrix:
 Charge =  0 Multiplicity = 1

                         Standard orientation:
 ---------------------------------------------------------------------
 Center     Atomic      Atomic             Coordinates (Angstroms)
 Number     Number       Type             X           Y           Z
 ---------------------------------------------------------------------
      1          6           0       -1.175954   -0.004597    0.013401
      2          6           0        0.278697   -0.004543   -0.051338
      3          7           0        1.424405    0.001582    0.024723
      4          1           0       -1.517974   -0.032077    0.986878
      5          1           0       -1.550144   -0.836733   -0.503719
      6          1           0       -1.519173    0.912572   -0.428597
 ---------------------------------------------------------------------

 SCF Done:  E(RB2PLYPD3) =  -132.532698100     A.U. after   11 cycles
 E2(B2PLYPD3) =    -0.1795116541D+00 E(B2PLYPD3) =    -0.13271220975432D+03

 The electronic state is 1-A.
 Alpha  occ. eigenvalues --  -14.83967 -10.65973 -10.65883  -1.04369  -0.90113
 Alpha  occ. eigenvalues --   -0.60094  -0.55142  -0.54433  -0.44737  -0.39321
 Alpha  occ. eigenvalues --   -0.39210
 Alpha virt. eigenvalues --    0.03914   0.08267   0.08643   0.10151   0.11339
 Alpha virt. eigenvalues --    0.11560   0.15573   0.16029   0.16660   0.20036
 Alpha virt. eigenvalues --    0.20096   0.25568   0.33107   0.34933   0.35490

 Mulliken charges:
               1
     1  C   -0.073014
     2  C   -0.002619
     3  N   -0.204325
     4  H    0.093984
     5  H    0.093721
     6  H    0.092253
 Sum of Mulliken charges =   0.00000

 Dipole moment (field-independent basis, Debye):
    X=             -4.1112    Y=              0.0004    Z=             -0.0202  Tot=              4.1112
 Quadrupole moment (field-independent basis, Debye-Ang):
   XX=            -20.9296   YY=            -17.6023   ZZ=            -17.7307
   XY=              0.0075   XZ=             -0.1619   YZ=              0.0168

 Normal termination of Gaussian 09 at Wed Aug 26 14:17:50 2020.
