 Gaussian 09, Revision D.01,
 Gaussian 09:  ES64L-G09RevD.01 24-Apr-2013

 --------------------
 #p B2PLYPD3/Def2QZVP
 --------------------

 ------------
 cyanomethane
 ------------
 Symbolic Z-matrix:
 Charge =  0 Multiplicity = 1

                         Standard orientation:
 ---------------------------------------------------------------------
 Center     Atomic      Atomic             Coordinates (Angstroms)
 Number     Number       Type             X           Y           Z
 ---------------------------------------------------------------------
      1          6           0       -1.173750    0.001242   -0.006799
      2          6           0        0.277486    0.007675   -0.029211
      3          7           0        1.440918   -0.002057    0.009886
      4          1           0       -1.600168   -0.834699   -0.582133
      5          1           0       -1.628190    0.955047   -0.330315
      6          1           0       -1.480483   -0.159446    1.059306
 ---------------------------------------------------------------------

 SCF Done:  E(RB2PLYPD3) =  -132.532700344     A.U. after   12 cycles
 E2(B2PLYPD3) =    -0.1816327430D+00 E(B2PLYPD3) =    -0.13271433308709D+03

 The electronic state is 1-A.
 Alpha  occ. eigenvalues --  -14.84535 -10.67684 -10.66638  -1.03797  -0.88886
 Alpha  occ. eigenvalues --   -0.60051  -0.53752  -0.52890  -0.44905  -0.38923
 Alpha  occ. eigenvalues --   -0.38647
 Alpha virt. eigenvalues --    0.03623   0.07358   0.07427   0.10158   0.11293
 Alpha virt. eigenvalues --    0.11635   0.15371   0.15978   0.16925   0.20100
 Alpha virt. eigenvalues --    0.20162   0.25470   0.32464   0.33748   0.34891

 Mulliken charges:
               1
     1  C   -0.085036
     2  C    0.003428
     3  N   -0.209760
     4  H    0.097754
     5  H    0.097753
     6  H    0.095860
 Sum of Mulliken charges =   0.00000

 Dipole moment (field-independent basis, Debye):
    X=             -4.1423    Y=             -0.0059    Z=              0.0138  Tot=              4.1423
 Quadrupole moment (field-independent basis, Debye-Ang):
   XX=            -20.9442   YY=            -17.7714   ZZ=            -17.9122
   XY=             -0.0040   XZ=             -0.0151   YZ=              0.0106

 Normal termination of Gaussian 09 at Wed Aug 26 15:53:05 2020.
