 Gaussian 09, Revision D.01,
 Gaussian 09:  ES64L-G09RevD.01 24-Apr-2013

 --------------------
 #p B2PLYPD3/Def2QZVP
 --------------------

 ------------
 cyanomethane
 ------------
 Symbolic Z-matrix:
 Charge =  0 Multiplicity = 1

                         Standard orientation:
 ---------------------------------------------------------------------
 Center     Atomic      Atomic             Coordinates (Angstroms)
 Number     Number       Type             X           Y           Z
 ---------------------------------------------------------------------
      1          6           0        1.191065    0.007562    0.001718
      2          6           0       -0.276799    0.030245   -0.003554
      3          7           0       -1.442572   -0.011929    0.002275
      4          1           0        1.536425   -0.197383    0.986139
      5          1           0        1.592725    0.902968   -0.368699
      6          1           0        1.483262   -0.848928   -0.622346
 ---------------------------------------------------------------------

 SCF Done:  E(RB2PLYPD3) =  -132.532726889     A.U. after   12 cycles
 E2(B2PLYPD3) =    -0.1812899069D+00 E(B2PLYPD3) =    -0.13271401679585D+03

 The electronic state is 1-A.
 Alpha  occ. eigenvalues --  -14.84485 -10.66738 -10.66604  -1.03587  -0.89576
 Alpha  occ. eigenvalues --   -0.59675  -0.55231  -0.53699  -0.44758  -0.38957
 Alpha  occ. eigenvalues --   -0.38683
 Alpha virt. eigenvalues --    0.03786   0.07902   0.08153   0.10203   0.11024
 Alpha virt. eigenvalues --    0.11426   0.15274   0.15904   0.16466   0.20083
 Alpha virt. eigenvalues --    0.20206   0.25133   0.32577   0.34168   0.35473

 Mulliken charges:
               1
     1  C   -0.081714
     2  C   -0.000518
     3  N   -0.212665
     4  H    0.097652
     5  H    0.100406
     6  H    0.096839
 Sum of Mulliken charges =   0.00000

 Dipole moment (field-independent basis, Debye):
    X=              4.1559    Y=             -0.0037    Z=              0.0053  Tot=              4.1559
 Quadrupole moment (field-independent basis, Debye-Ang):
   XX=            -21.0317   YY=            -17.6903   ZZ=            -17.8248
   XY=             -0.0268   XZ=              0.0422   YZ=             -0.0448

 Normal termination of Gaussian 09 at Wed Aug 26 14:58:36 2020.
