 Gaussian 09, Revision D.01,
 Gaussian 09:  ES64L-G09RevD.01 24-Apr-2013

 --------------------
 #p B2PLYPD3/Def2QZVP
 --------------------

 ------------
 cyanomethane
 ------------
 Symbolic Z-matrix:
 Charge =  0 Multiplicity = 1

                         Standard orientation:
 ---------------------------------------------------------------------
 Center     Atomic      Atomic             Coordinates (Angstroms)
 Number     Number       Type             X           Y           Z
 ---------------------------------------------------------------------
      1          6           0        1.188716   -0.002198   -0.013947
      2          6           0       -0.273192   -0.014568    0.044950
      3          7           0       -1.443111    0.010047   -0.022046
      4          1           0        1.535926    0.023799    1.018391
      5          1           0        1.561519    0.932995   -0.533403
      6          1           0        1.511187   -0.926525   -0.516684
 ---------------------------------------------------------------------

 SCF Done:  E(RB2PLYPD3) =  -132.530618038     A.U. after   12 cycles
 E2(B2PLYPD3) =    -0.1823196335D+00 E(B2PLYPD3) =    -0.13271293767154D+03

 The electronic state is 1-A.
 Alpha  occ. eigenvalues --  -14.84633 -10.67830 -10.66725  -1.03371  -0.88876
 Alpha  occ. eigenvalues --   -0.58952  -0.54327  -0.53285  -0.44763  -0.38637
 Alpha  occ. eigenvalues --   -0.38507
 Alpha virt. eigenvalues --    0.03512   0.07188   0.07864   0.10104   0.11147
 Alpha virt. eigenvalues --    0.11313   0.15153   0.15529   0.16538   0.20145
 Alpha virt. eigenvalues --    0.20174   0.25349   0.32367   0.33841   0.34466

 Mulliken charges:
               1
     1  C   -0.098439
     2  C    0.001889
     3  N   -0.214269
     4  H    0.101051
     5  H    0.102978
     6  H    0.106789
 Sum of Mulliken charges =   0.00000

 Dipole moment (field-independent basis, Debye):
    X=              4.1315    Y=             -0.0119    Z=              0.0474  Tot=              4.1318
 Quadrupole moment (field-independent basis, Debye-Ang):
   XX=            -21.2486   YY=            -17.6836   ZZ=            -17.8720
   XY=              0.0983   XZ=             -0.0645   YZ=              0.0369

 Normal termination of Gaussian 09 at Wed Aug 26 11:47:29 2020.
