 Gaussian 09, Revision D.01,
 Gaussian 09:  ES64L-G09RevD.01 24-Apr-2013

 --------------------
 #p B2PLYPD3/Def2QZVP
 --------------------

 ------------
 cyanomethane
 ------------
 Symbolic Z-matrix:
 Charge =  0 Multiplicity = 1

                         Standard orientation:
 ---------------------------------------------------------------------
 Center     Atomic      Atomic             Coordinates (Angstroms)
 Number     Number       Type             X           Y           Z
 ---------------------------------------------------------------------
      1          6           0        1.182065   -0.022550   -0.020319
      2          6           0       -0.277957    0.061691    0.021466
      3          7           0       -1.427754   -0.031379   -0.011494
      4          1           0        1.511550    1.029106   -0.164503
      5          1           0        1.558355   -0.685438   -0.739502
      6          1           0        1.499729   -0.358858    0.977578
 ---------------------------------------------------------------------

 SCF Done:  E(RB2PLYPD3) =  -132.531233841     A.U. after   12 cycles
 E2(B2PLYPD3) =    -0.1805690167D+00 E(B2PLYPD3) =    -0.13271180285760D+03

 The electronic state is 1-A.
 Alpha  occ. eigenvalues --  -14.84118 -10.67100 -10.66148  -1.04111  -0.89266
 Alpha  occ. eigenvalues --   -0.59575  -0.54463  -0.53555  -0.44717  -0.39138
 Alpha  occ. eigenvalues --   -0.38884
 Alpha virt. eigenvalues --    0.03700   0.07774   0.08218   0.09976   0.11365
 Alpha virt. eigenvalues --    0.11546   0.15258   0.15511   0.16975   0.20011
 Alpha virt. eigenvalues --    0.20175   0.25595   0.32704   0.33862   0.35152

 Mulliken charges:
               1
     1  C   -0.093956
     2  C    0.000540
     3  N   -0.206811
     4  H    0.098268
     5  H    0.104884
     6  H    0.097075
 Sum of Mulliken charges =   0.00000

 Dipole moment (field-independent basis, Debye):
    X=              4.0878    Y=              0.0315    Z=              0.0331  Tot=              4.0880
 Quadrupole moment (field-independent basis, Debye-Ang):
   XX=            -21.1900   YY=            -17.6069   ZZ=            -17.7839
   XY=             -0.2253   XZ=             -0.0576   YZ=              0.0465

 Normal termination of Gaussian 09 at Wed Aug 26 23:08:11 2020.
