 Gaussian 09, Revision D.01,
 Gaussian 09:  ES64L-G09RevD.01 24-Apr-2013

 --------------------
 #p B2PLYPD3/Def2QZVP
 --------------------

 ------------
 cyanomethane
 ------------
 Symbolic Z-matrix:
 Charge =  0 Multiplicity = 1

                         Standard orientation:
 ---------------------------------------------------------------------
 Center     Atomic      Atomic             Coordinates (Angstroms)
 Number     Number       Type             X           Y           Z
 ---------------------------------------------------------------------
      1          6           0       -1.192711   -0.000802    0.013050
      2          6           0        0.292619    0.036879   -0.001942
      3          7           0        1.433070   -0.018083   -0.001658
      4          1           0       -1.523361   -0.180698    1.016726
      5          1           0       -1.541496   -0.900609   -0.658857
      6          1           0       -1.566076    0.991423   -0.412912
 ---------------------------------------------------------------------

 SCF Done:  E(RB2PLYPD3) =  -132.528437239     A.U. after   12 cycles
 E2(B2PLYPD3) =    -0.1799868134D+00 E(B2PLYPD3) =    -0.13270842405252D+03

 The electronic state is 1-A.
 Alpha  occ. eigenvalues --  -14.83789 -10.68608 -10.65914  -1.04524  -0.87917
 Alpha  occ. eigenvalues --   -0.58291  -0.53918  -0.52228  -0.44620  -0.39465
 Alpha  occ. eigenvalues --   -0.39196
 Alpha virt. eigenvalues --    0.03409   0.07485   0.08255   0.10205   0.11407
 Alpha virt. eigenvalues --    0.11711   0.15061   0.16044   0.16239   0.19951
 Alpha virt. eigenvalues --    0.20060   0.24868   0.31915   0.33109   0.34561

 Mulliken charges:
               1
     1  C   -0.111805
     2  C   -0.003493
     3  N   -0.198227
     4  H    0.108724
     5  H    0.100282
     6  H    0.104519
 Sum of Mulliken charges =   0.00000

 Dipole moment (field-independent basis, Debye):
    X=             -4.0825    Y=              0.0171    Z=              0.0242  Tot=              4.0826
 Quadrupole moment (field-independent basis, Debye-Ang):
   XX=            -21.3252   YY=            -17.6376   ZZ=            -17.7792
   XY=              0.1108   XZ=             -0.0148   YZ=             -0.0587

 Normal termination of Gaussian 09 at Wed Aug 26 12:04:12 2020.
