 Gaussian 09, Revision D.01,
 Gaussian 09:  ES64L-G09RevD.01 24-Apr-2013

 --------------------
 #p B2PLYPD3/Def2QZVP
 --------------------

 ------------
 cyanomethane
 ------------
 Symbolic Z-matrix:
 Charge =  0 Multiplicity = 1

                         Standard orientation:
 ---------------------------------------------------------------------
 Center     Atomic      Atomic             Coordinates (Angstroms)
 Number     Number       Type             X           Y           Z
 ---------------------------------------------------------------------
      1          6           0       -1.167557   -0.025664   -0.013691
      2          6           0        0.287865   -0.069754    0.033730
      3          7           0        1.416052    0.040244   -0.024472
      4          1           0       -1.570020    1.094323   -0.148400
      5          1           0       -1.437897   -0.248818    0.954428
      6          1           0       -1.626295   -0.554706   -0.754958
 ---------------------------------------------------------------------

 SCF Done:  E(RB2PLYPD3) =  -132.519416216     A.U. after   12 cycles
 E2(B2PLYPD3) =    -0.1791491178D+00 E(B2PLYPD3) =    -0.13269856533399D+03

 The electronic state is 1-A.
 Alpha  occ. eigenvalues --  -14.83711 -10.66712 -10.65694  -1.04994  -0.89564
 Alpha  occ. eigenvalues --   -0.60389  -0.56246  -0.51252  -0.44805  -0.39890
 Alpha  occ. eigenvalues --   -0.39055
 Alpha virt. eigenvalues --    0.03248   0.07562   0.09216   0.10101   0.11251
 Alpha virt. eigenvalues --    0.12031   0.15541   0.15762   0.17608   0.19852
 Alpha virt. eigenvalues --    0.20136   0.25684   0.32031   0.33683   0.36243

 Mulliken charges:
               1
     1  C   -0.087466
     2  C    0.000749
     3  N   -0.195084
     4  H    0.081253
     5  H    0.098964
     6  H    0.101585
 Sum of Mulliken charges =   0.00000

 Dipole moment (field-independent basis, Debye):
    X=             -4.0583    Y=             -0.0690    Z=              0.0660  Tot=              4.0594
 Quadrupole moment (field-independent basis, Debye-Ang):
   XX=            -20.8938   YY=            -17.8403   ZZ=            -17.5772
   XY=             -0.2648   XZ=              0.2249   YZ=              0.0982

 Normal termination of Gaussian 09 at Wed Aug 26 16:25:04 2020.
