 Gaussian 09, Revision D.01,
 Gaussian 09:  ES64L-G09RevD.01 24-Apr-2013

 --------------------
 #p B2PLYPD3/Def2QZVP
 --------------------

 ------------
 cyanomethane
 ------------
 Symbolic Z-matrix:
 Charge =  0 Multiplicity = 1

                         Standard orientation:
 ---------------------------------------------------------------------
 Center     Atomic      Atomic             Coordinates (Angstroms)
 Number     Number       Type             X           Y           Z
 ---------------------------------------------------------------------
      1          6           0        1.165102   -0.015820    0.013859
      2          6           0       -0.277916   -0.049782    0.002976
      3          7           0       -1.425233    0.043382   -0.011576
      4          1           0        1.775373    1.000195   -0.503533
      5          1           0        1.444956   -0.915389   -0.550627
      6          1           0        1.433187    0.005138    1.034186
 ---------------------------------------------------------------------

 SCF Done:  E(RB2PLYPD3) =  -132.509264580     A.U. after   13 cycles
 E2(B2PLYPD3) =    -0.1814717886D+00 E(B2PLYPD3) =    -0.13269073636832D+03

 The electronic state is 1-A.
 Alpha  occ. eigenvalues --  -14.84164 -10.68539 -10.66129  -1.04379  -0.88855
 Alpha  occ. eigenvalues --   -0.58742  -0.55672  -0.50224  -0.44837  -0.39201
 Alpha  occ. eigenvalues --   -0.38496
 Alpha virt. eigenvalues --    0.02446   0.06148   0.08614   0.10119   0.11365
 Alpha virt. eigenvalues --    0.11965   0.15134   0.15512   0.17262   0.20003
 Alpha virt. eigenvalues --    0.20298   0.25651   0.30082   0.33326   0.34959

 Mulliken charges:
               1
     1  C   -0.111045
     2  C    0.002064
     3  N   -0.202296
     4  H    0.089823
     5  H    0.109640
     6  H    0.111813
 Sum of Mulliken charges =   0.00000

 Dipole moment (field-independent basis, Debye):
    X=              4.0432    Y=             -0.1108    Z=              0.0689  Tot=              4.0453
 Quadrupole moment (field-independent basis, Debye-Ang):
   XX=            -21.2209   YY=            -17.7726   ZZ=            -17.7985
   XY=              0.4191   XZ=             -0.0964   YZ=              0.1706

 Normal termination of Gaussian 09 at Wed Aug 26 23:35:02 2020.
