 Gaussian 09, Revision D.01,
 Gaussian 09:  ES64L-G09RevD.01 24-Apr-2013

 --------------------
 #p B2PLYPD3/Def2QZVP
 --------------------

 ------------
 cyanomethane
 ------------
 Symbolic Z-matrix:
 Charge =  0 Multiplicity = 1

                         Standard orientation:
 ---------------------------------------------------------------------
 Center     Atomic      Atomic             Coordinates (Angstroms)
 Number     Number       Type             X           Y           Z
 ---------------------------------------------------------------------
      1          6           0        1.151328   -0.022172   -0.004989
      2          6           0       -0.250612    0.069961    0.028108
      3          7           0       -1.436747   -0.027018   -0.009022
      4          1           0        1.594574   -0.287220    1.022623
      5          1           0        1.612766    1.020011   -0.341750
      6          1           0        1.445595   -0.830396   -0.756431
 ---------------------------------------------------------------------

 SCF Done:  E(RB2PLYPD3) =  -132.517250674     A.U. after   12 cycles
 E2(B2PLYPD3) =    -0.1848740897D+00 E(B2PLYPD3) =    -0.13270212476361D+03

 The electronic state is 1-A.
 Alpha  occ. eigenvalues --  -14.85182 -10.68770 -10.67105  -1.02898  -0.88912
 Alpha  occ. eigenvalues --   -0.59728  -0.53253  -0.52407  -0.45011  -0.37841
 Alpha  occ. eigenvalues --   -0.37729
 Alpha virt. eigenvalues --    0.03230   0.05930   0.06106   0.09920   0.11420
 Alpha virt. eigenvalues --    0.11574   0.15456   0.15788   0.16291   0.20164
 Alpha virt. eigenvalues --    0.20279   0.26397   0.31604   0.33325   0.33773

 Mulliken charges:
               1
     1  C   -0.107076
     2  C    0.012155
     3  N   -0.220207
     4  H    0.104477
     5  H    0.099005
     6  H    0.111646
 Sum of Mulliken charges =   0.00000

 Dipole moment (field-independent basis, Debye):
    X=              4.1115    Y=              0.0017    Z=              0.0080  Tot=              4.1115
 Quadrupole moment (field-independent basis, Debye-Ang):
   XX=            -21.2769   YY=            -17.8443   ZZ=            -17.9083
   XY=             -0.0665   XZ=              0.0476   YZ=              0.0279

 Normal termination of Gaussian 09 at Wed Aug 26 21:47:24 2020.
