 Gaussian 09, Revision D.01,
 Gaussian 09:  ES64L-G09RevD.01 24-Apr-2013

 --------------------
 #p B2PLYPD3/Def2QZVP
 --------------------

 ------------
 cyanomethane
 ------------
 Symbolic Z-matrix:
 Charge =  0 Multiplicity = 1

                         Standard orientation:
 ---------------------------------------------------------------------
 Center     Atomic      Atomic             Coordinates (Angstroms)
 Number     Number       Type             X           Y           Z
 ---------------------------------------------------------------------
      1          6           0        1.163571    0.007783    0.012450
      2          6           0       -0.267122   -0.007327   -0.026816
      3          7           0       -1.431544    0.004706    0.012657
      4          1           0        1.569399    1.064263   -0.139598
      5          1           0        1.533434   -0.673854   -0.826776
      6          1           0        1.539281   -0.426086    0.963972
 ---------------------------------------------------------------------

 SCF Done:  E(RB2PLYPD3) =  -132.529327324     A.U. after   12 cycles
 E2(B2PLYPD3) =    -0.1820149543D+00 E(B2PLYPD3) =    -0.13271134227867D+03

 The electronic state is 1-A.
 Alpha  occ. eigenvalues --  -14.84451 -10.68163 -10.66453  -1.03750  -0.88890
 Alpha  occ. eigenvalues --   -0.59537  -0.53564  -0.52904  -0.44843  -0.38651
 Alpha  occ. eigenvalues --   -0.38452
 Alpha virt. eigenvalues --    0.03510   0.07000   0.07152   0.10059   0.11500
 Alpha virt. eigenvalues --    0.11664   0.15443   0.15717   0.16639   0.20128
 Alpha virt. eigenvalues --    0.20175   0.25811   0.32371   0.33472   0.34262

 Mulliken charges:
               1
     1  C   -0.099966
     2  C    0.004144
     3  N   -0.210679
     4  H    0.103875
     5  H    0.098596
     6  H    0.104029
 Sum of Mulliken charges =   0.00000

 Dipole moment (field-independent basis, Debye):
    X=              4.1096    Y=             -0.0260    Z=             -0.0107  Tot=              4.1097
 Quadrupole moment (field-independent basis, Debye-Ang):
   XX=            -21.2060   YY=            -17.6947   ZZ=            -17.8749
   XY=              0.0055   XZ=              0.0802   YZ=             -0.0345

 Normal termination of Gaussian 09 at Wed Aug 26 15:05:31 2020.
