 Gaussian 09, Revision D.01,
 Gaussian 09:  ES64L-G09RevD.01 24-Apr-2013

 --------------------
 #p B2PLYPD3/Def2QZVP
 --------------------

 ------------
 cyanomethane
 ------------
 Symbolic Z-matrix:
 Charge =  0 Multiplicity = 1

                         Standard orientation:
 ---------------------------------------------------------------------
 Center     Atomic      Atomic             Coordinates (Angstroms)
 Number     Number       Type             X           Y           Z
 ---------------------------------------------------------------------
      1          6           0       -1.184377    0.023025   -0.011928
      2          6           0        0.306708   -0.034307   -0.038943
      3          7           0        1.435492    0.015484    0.009980
      4          1           0       -1.634503    1.033817   -0.208952
      5          1           0       -1.435974   -0.284744    1.107817
      6          1           0       -1.711953   -0.789770   -0.663501
 ---------------------------------------------------------------------

 SCF Done:  E(RB2PLYPD3) =  -132.521674343     A.U. after   12 cycles
 E2(B2PLYPD3) =    -0.1797390785D+00 E(B2PLYPD3) =    -0.13270141342177D+03

 The electronic state is 1-A.
 Alpha  occ. eigenvalues --  -14.83683 -10.69486 -10.65939  -1.05113  -0.86948
 Alpha  occ. eigenvalues --   -0.58808  -0.52648  -0.51054  -0.44777  -0.39884
 Alpha  occ. eigenvalues --   -0.39310
 Alpha virt. eigenvalues --    0.03263   0.07332   0.07515   0.10263   0.11549
 Alpha virt. eigenvalues --    0.12127   0.14956   0.15765   0.17722   0.19971
 Alpha virt. eigenvalues --    0.20012   0.24864   0.31628   0.32314   0.34604

 Mulliken charges:
               1
     1  C   -0.112359
     2  C    0.002439
     3  N   -0.190130
     4  H    0.107100
     5  H    0.096018
     6  H    0.096933
 Sum of Mulliken charges =   0.00000

 Dipole moment (field-independent basis, Debye):
    X=             -4.0822    Y=             -0.0266    Z=              0.0130  Tot=              4.0823
 Quadrupole moment (field-independent basis, Debye-Ang):
   XX=            -21.0280   YY=            -17.7137   ZZ=            -17.9667
   XY=             -0.0794   XZ=              0.0632   YZ=             -0.0209

 Normal termination of Gaussian 09 at Wed Aug 26 20:12:23 2020.
