 Gaussian 09, Revision D.01,
 Gaussian 09:  ES64L-G09RevD.01 24-Apr-2013

 --------------------
 #p B2PLYPD3/Def2QZVP
 --------------------

 ------------
 cyanomethane
 ------------
 Symbolic Z-matrix:
 Charge =  0 Multiplicity = 1

                         Standard orientation:
 ---------------------------------------------------------------------
 Center     Atomic      Atomic             Coordinates (Angstroms)
 Number     Number       Type             X           Y           Z
 ---------------------------------------------------------------------
      1          6           0        1.173379   -0.002445   -0.002565
      2          6           0       -0.282638    0.007442   -0.016259
      3          7           0       -1.435378   -0.005488    0.013017
      4          1           0        1.630102   -0.265386    0.976179
      5          1           0        1.528705    0.994430   -0.249245
      6          1           0        1.544390   -0.720607   -0.705113
 ---------------------------------------------------------------------

 SCF Done:  E(RB2PLYPD3) =  -132.534330231     A.U. after   12 cycles
 E2(B2PLYPD3) =    -0.1804235395D+00 E(B2PLYPD3) =    -0.13271475377080D+03

 The electronic state is 1-A.
 Alpha  occ. eigenvalues --  -14.84234 -10.67086 -10.66298  -1.04225  -0.89187
 Alpha  occ. eigenvalues --   -0.60149  -0.54444  -0.52877  -0.44865  -0.39197
 Alpha  occ. eigenvalues --   -0.39049
 Alpha virt. eigenvalues --    0.03728   0.07492   0.08187   0.10162   0.11375
 Alpha virt. eigenvalues --    0.11633   0.15453   0.16190   0.16898   0.20028
 Alpha virt. eigenvalues --    0.20146   0.25407   0.32755   0.34407   0.34936

 Mulliken charges:
               1
     1  C   -0.077766
     2  C    0.000144
     3  N   -0.204799
     4  H    0.090656
     5  H    0.095450
     6  H    0.096315
 Sum of Mulliken charges =   0.00000

 Dipole moment (field-independent basis, Debye):
    X=              4.1309    Y=              0.0060    Z=             -0.0202  Tot=              4.1309
 Quadrupole moment (field-independent basis, Debye-Ang):
   XX=            -20.8617   YY=            -17.7153   ZZ=            -17.8687
   XY=             -0.0680   XZ=              0.1449   YZ=              0.0309

 Normal termination of Gaussian 09 at Wed Aug 26 10:03:05 2020.
