 Gaussian 09, Revision D.01,
 Gaussian 09:  ES64L-G09RevD.01 24-Apr-2013

 --------------------
 #p B2PLYPD3/Def2QZVP
 --------------------

 ------------
 cyanomethane
 ------------
 Symbolic Z-matrix:
 Charge =  0 Multiplicity = 1

                         Standard orientation:
 ---------------------------------------------------------------------
 Center     Atomic      Atomic             Coordinates (Angstroms)
 Number     Number       Type             X           Y           Z
 ---------------------------------------------------------------------
      1          6           0        1.147222   -0.011502   -0.012653
      2          6           0       -0.268452    0.065722    0.016397
      3          7           0       -1.432134   -0.031406   -0.003966
      4          1           0        1.602532    1.058810   -0.112541
      5          1           0        1.538233   -0.678225   -0.875463
      6          1           0        1.611556   -0.486066    0.993305
 ---------------------------------------------------------------------

 SCF Done:  E(RB2PLYPD3) =  -132.517566129     A.U. after   12 cycles
 E2(B2PLYPD3) =    -0.1831597163D+00 E(B2PLYPD3) =    -0.13270072584539D+03

 The electronic state is 1-A.
 Alpha  occ. eigenvalues --  -14.84742 -10.69245 -10.66656  -1.03825  -0.88195
 Alpha  occ. eigenvalues --   -0.59693  -0.52669  -0.51454  -0.45070  -0.38479
 Alpha  occ. eigenvalues --   -0.38284
 Alpha virt. eigenvalues --    0.03108   0.05842   0.06504   0.09929   0.11577
 Alpha virt. eigenvalues --    0.11920   0.15520   0.16014   0.16793   0.19996
 Alpha virt. eigenvalues --    0.20232   0.26179   0.31902   0.32715   0.33717

 Mulliken charges:
               1
     1  C   -0.105128
     2  C    0.010546
     3  N   -0.208027
     4  H    0.099342
     5  H    0.106117
     6  H    0.097151
 Sum of Mulliken charges =   0.00000

 Dipole moment (field-independent basis, Debye):
    X=              4.0743    Y=              0.0276    Z=             -0.0049  Tot=              4.0744
 Quadrupole moment (field-independent basis, Debye-Ang):
   XX=            -21.1123   YY=            -17.8339   ZZ=            -17.9576
   XY=             -0.1736   XZ=              0.0194   YZ=              0.0412

 Normal termination of Gaussian 09 at Wed Aug 26 22:33:58 2020.
