 Gaussian 09, Revision D.01,
 Gaussian 09:  ES64L-G09RevD.01 24-Apr-2013

 --------------------
 #p B2PLYPD3/Def2QZVP
 --------------------

 ------------
 cyanomethane
 ------------
 Symbolic Z-matrix:
 Charge =  0 Multiplicity = 1

                         Standard orientation:
 ---------------------------------------------------------------------
 Center     Atomic      Atomic             Coordinates (Angstroms)
 Number     Number       Type             X           Y           Z
 ---------------------------------------------------------------------
      1          6           0        1.200632   -0.019871   -0.031177
      2          6           0       -0.298889   -0.055145   -0.004641
      3          7           0       -1.431346    0.031735    0.011787
      4          1           0        1.624962    0.055410    1.028253
      5          1           0        1.500279    0.977404   -0.440949
      6          1           0        1.483723   -0.804864   -0.454908
 ---------------------------------------------------------------------

 SCF Done:  E(RB2PLYPD3) =  -132.510580197     A.U. after   11 cycles
 E2(B2PLYPD3) =    -0.1789151115D+00 E(B2PLYPD3) =    -0.13268949530860D+03

 The electronic state is 1-A.
 Alpha  occ. eigenvalues --  -14.83643 -10.66772 -10.65740  -1.04761  -0.89482
 Alpha  occ. eigenvalues --   -0.59159  -0.57381  -0.51276  -0.44599  -0.40022
 Alpha  occ. eigenvalues --   -0.39253
 Alpha virt. eigenvalues --    0.03556   0.07601   0.09841   0.10297   0.10756
 Alpha virt. eigenvalues --    0.11973   0.15068   0.16321   0.16501   0.19779
 Alpha virt. eigenvalues --    0.20147   0.24620   0.32232   0.33266   0.35655

 Mulliken charges:
               1
     1  C   -0.101035
     2  C   -0.007765
     3  N   -0.196113
     4  H    0.085323
     5  H    0.101008
     6  H    0.118582
 Sum of Mulliken charges =   0.00000

 Dipole moment (field-independent basis, Debye):
    X=              4.1067    Y=             -0.0155    Z=              0.0085  Tot=              4.1067
 Quadrupole moment (field-independent basis, Debye-Ang):
   XX=            -21.0160   YY=            -17.4311   ZZ=            -17.9092
   XY=              0.2568   XZ=              0.2392   YZ=              0.1364

 Normal termination of Gaussian 09 at Wed Aug 26 18:41:59 2020.
