 Gaussian 09, Revision D.01,
 Gaussian 09:  ES64L-G09RevD.01 24-Apr-2013

 --------------------
 #p B2PLYPD3/Def2QZVP
 --------------------

 ------------
 cyanomethane
 ------------
 Symbolic Z-matrix:
 Charge =  0 Multiplicity = 1

                         Standard orientation:
 ---------------------------------------------------------------------
 Center     Atomic      Atomic             Coordinates (Angstroms)
 Number     Number       Type             X           Y           Z
 ---------------------------------------------------------------------
      1          6           0       -1.179322    0.005498   -0.013165
      2          6           0        0.273792    0.005504    0.027964
      3          7           0        1.432986   -0.002824   -0.012778
      4          1           0       -1.538784   -0.057075    1.007735
      5          1           0       -1.522019   -0.871000   -0.539043
      6          1           0       -1.536922    0.881832   -0.468039
 ---------------------------------------------------------------------

 SCF Done:  E(RB2PLYPD3) =  -132.534277101     A.U. after   11 cycles
 E2(B2PLYPD3) =    -0.1806961114D+00 E(B2PLYPD3) =    -0.13271497321213D+03

 The electronic state is 1-A.
 Alpha  occ. eigenvalues --  -14.84278 -10.66547 -10.66317  -1.03883  -0.89777
 Alpha  occ. eigenvalues --   -0.59792  -0.55036  -0.54012  -0.44755  -0.39008
 Alpha  occ. eigenvalues --   -0.38832
 Alpha virt. eigenvalues --    0.03836   0.07982   0.08160   0.10152   0.11279
 Alpha virt. eigenvalues --    0.11446   0.15447   0.15885   0.16548   0.20110
 Alpha virt. eigenvalues --    0.20145   0.25455   0.32834   0.34490   0.35252

 Mulliken charges:
               1
     1  C   -0.080617
     2  C   -0.001421
     3  N   -0.209895
     4  H    0.094326
     5  H    0.097571
     6  H    0.100036
 Sum of Mulliken charges =   0.00000

 Dipole moment (field-independent basis, Debye):
    X=             -4.1339    Y=             -0.0014    Z=              0.0224  Tot=              4.1339
 Quadrupole moment (field-independent basis, Debye-Ang):
   XX=            -21.0333   YY=            -17.6810   ZZ=            -17.7553
   XY=              0.0182   XZ=              0.0469   YZ=             -0.0236

 Normal termination of Gaussian 09 at Wed Aug 26 10:01:29 2020.
