 Gaussian 09, Revision D.01,
 Gaussian 09:  ES64L-G09RevD.01 24-Apr-2013

 --------------------
 #p B2PLYPD3/Def2QZVP
 --------------------

 ------------
 cyanomethane
 ------------
 Symbolic Z-matrix:
 Charge =  0 Multiplicity = 1

                         Standard orientation:
 ---------------------------------------------------------------------
 Center     Atomic      Atomic             Coordinates (Angstroms)
 Number     Number       Type             X           Y           Z
 ---------------------------------------------------------------------
      1          6           0       -1.170746    0.004564    0.005511
      2          6           0        0.277798    0.020783    0.013510
      3          7           0        1.423577   -0.003565   -0.009834
      4          1           0       -1.475486   -0.349251    0.910672
      5          1           0       -1.487009   -0.741372   -0.725587
      6          1           0       -1.644853    0.963494   -0.230367
 ---------------------------------------------------------------------

 SCF Done:  E(RB2PLYPD3) =  -132.531921107     A.U. after   12 cycles
 E2(B2PLYPD3) =    -0.1795423601D+00 E(B2PLYPD3) =    -0.13271146346681D+03

 The electronic state is 1-A.
 Alpha  occ. eigenvalues --  -14.83891 -10.66331 -10.65920  -1.04455  -0.89961
 Alpha  occ. eigenvalues --   -0.60006  -0.55145  -0.53728  -0.44729  -0.39367
 Alpha  occ. eigenvalues --   -0.39104
 Alpha virt. eigenvalues --    0.03838   0.07859   0.08748   0.10217   0.11397
 Alpha virt. eigenvalues --    0.11743   0.15538   0.15813   0.17034   0.20035
 Alpha virt. eigenvalues --    0.20135   0.25525   0.32922   0.34402   0.35517

 Mulliken charges:
               1
     1  C   -0.080646
     2  C   -0.002242
     3  N   -0.203398
     4  H    0.097758
     5  H    0.092277
     6  H    0.096251
 Sum of Mulliken charges =   0.00000

 Dipole moment (field-independent basis, Debye):
    X=             -4.1197    Y=             -0.0343    Z=              0.0290  Tot=              4.1200
 Quadrupole moment (field-independent basis, Debye-Ang):
   XX=            -20.9299   YY=            -17.5884   ZZ=            -17.7905
   XY=             -0.0176   XZ=              0.0613   YZ=             -0.0496

 Normal termination of Gaussian 09 at Wed Aug 26 16:58:12 2020.
