 Gaussian 09, Revision D.01,
 Gaussian 09:  ES64L-G09RevD.01 24-Apr-2013

 --------------------
 #p B2PLYPD3/Def2QZVP
 --------------------

 ------------
 cyanomethane
 ------------
 Symbolic Z-matrix:
 Charge =  0 Multiplicity = 1

                         Standard orientation:
 ---------------------------------------------------------------------
 Center     Atomic      Atomic             Coordinates (Angstroms)
 Number     Number       Type             X           Y           Z
 ---------------------------------------------------------------------
      1          6           0       -1.171711    0.004209    0.000073
      2          6           0        0.268390   -0.023299    0.002103
      3          7           0        1.432781    0.012763   -0.002731
      4          1           0       -1.511946   -0.215550    1.000207
      5          1           0       -1.540957   -0.767116   -0.686261
      6          1           0       -1.556641    1.007866   -0.307889
 ---------------------------------------------------------------------

 SCF Done:  E(RB2PLYPD3) =  -132.533449484     A.U. after   12 cycles
 E2(B2PLYPD3) =    -0.1814801347D+00 E(B2PLYPD3) =    -0.13271492961833D+03

 The electronic state is 1-A.
 Alpha  occ. eigenvalues --  -14.84412 -10.67252 -10.66432  -1.03715  -0.89441
 Alpha  occ. eigenvalues --   -0.59669  -0.54252  -0.53755  -0.44793  -0.38687
 Alpha  occ. eigenvalues --   -0.38671
 Alpha virt. eigenvalues --    0.03683   0.07360   0.07859   0.10115   0.11397
 Alpha virt. eigenvalues --    0.11470   0.15457   0.15833   0.16469   0.20145
 Alpha virt. eigenvalues --    0.20168   0.25651   0.32717   0.34288   0.34487

 Mulliken charges:
               1
     1  C   -0.089520
     2  C    0.000668
     3  N   -0.211704
     4  H    0.100625
     5  H    0.099829
     6  H    0.100103
 Sum of Mulliken charges =   0.00000

 Dipole moment (field-independent basis, Debye):
    X=             -4.1279    Y=             -0.0250    Z=              0.0158  Tot=              4.1280
 Quadrupole moment (field-independent basis, Debye-Ang):
   XX=            -21.1265   YY=            -17.7115   ZZ=            -17.7874
   XY=             -0.0673   XZ=              0.0147   YZ=              0.0038

 Normal termination of Gaussian 09 at Thu Aug 27 00:02:37 2020.
