 Gaussian 09, Revision D.01,
 Gaussian 09:  ES64L-G09RevD.01 24-Apr-2013

 --------------------
 #p B2PLYPD3/Def2QZVP
 --------------------

 ------------
 cyanomethane
 ------------
 Symbolic Z-matrix:
 Charge =  0 Multiplicity = 1

                         Standard orientation:
 ---------------------------------------------------------------------
 Center     Atomic      Atomic             Coordinates (Angstroms)
 Number     Number       Type             X           Y           Z
 ---------------------------------------------------------------------
      1          6           0       -1.181778    0.005575    0.002980
      2          6           0        0.276759   -0.007300    0.023756
      3          7           0        1.437994    0.004956   -0.013517
      4          1           0       -1.529445   -0.279345    0.977131
      5          1           0       -1.536552   -0.755777   -0.752052
      6          1           0       -1.569853    1.010776   -0.290883
 ---------------------------------------------------------------------

 SCF Done:  E(RB2PLYPD3) =  -132.532758907     A.U. after   12 cycles
 E2(B2PLYPD3) =    -0.1813412695D+00 E(B2PLYPD3) =    -0.13271410017614D+03

 The electronic state is 1-A.
 Alpha  occ. eigenvalues --  -14.84372 -10.67693 -10.66451  -1.03798  -0.88914
 Alpha  occ. eigenvalues --   -0.59268  -0.54310  -0.53080  -0.44774  -0.38906
 Alpha  occ. eigenvalues --   -0.38741
 Alpha virt. eigenvalues --    0.03604   0.07315   0.07990   0.10150   0.11264
 Alpha virt. eigenvalues --    0.11520   0.15306   0.15863   0.16470   0.20085
 Alpha virt. eigenvalues --    0.20156   0.25323   0.32465   0.33853   0.34652

 Mulliken charges:
               1
     1  C   -0.094339
     2  C    0.000134
     3  N   -0.209407
     4  H    0.103063
     5  H    0.098816
     6  H    0.101733
 Sum of Mulliken charges =   0.00000

 Dipole moment (field-independent basis, Debye):
    X=             -4.1255    Y=             -0.0154    Z=              0.0230  Tot=              4.1256
 Quadrupole moment (field-independent basis, Debye-Ang):
   XX=            -21.1509   YY=            -17.7477   ZZ=            -17.7843
   XY=             -0.0339   XZ=              0.0777   YZ=             -0.0359

 Normal termination of Gaussian 09 at Wed Aug 26 09:58:10 2020.
