 Gaussian 09, Revision D.01,
 Gaussian 09:  ES64L-G09RevD.01 24-Apr-2013

 --------------------
 #p B2PLYPD3/Def2QZVP
 --------------------

 ------------
 cyanomethane
 ------------
 Symbolic Z-matrix:
 Charge =  0 Multiplicity = 1

                         Standard orientation:
 ---------------------------------------------------------------------
 Center     Atomic      Atomic             Coordinates (Angstroms)
 Number     Number       Type             X           Y           Z
 ---------------------------------------------------------------------
      1          6           0        1.169783   -0.007269    0.026480
      2          6           0       -0.283525    0.028767   -0.029444
      3          7           0       -1.425222   -0.012504    0.015002
      4          1           0        1.572013   -0.428287    0.935979
      5          1           0        1.573813    1.041395   -0.154095
      6          1           0        1.513183   -0.654566   -0.869113
 ---------------------------------------------------------------------

 SCF Done:  E(RB2PLYPD3) =  -132.530453540     A.U. after   12 cycles
 E2(B2PLYPD3) =    -0.1800924920D+00 E(B2PLYPD3) =    -0.13271054603193D+03

 The electronic state is 1-A.
 Alpha  occ. eigenvalues --  -14.83888 -10.68115 -10.65930  -1.04593  -0.88472
 Alpha  occ. eigenvalues --   -0.59440  -0.53758  -0.52346  -0.44770  -0.39374
 Alpha  occ. eigenvalues --   -0.39012
 Alpha virt. eigenvalues --    0.03551   0.07549   0.07659   0.10087   0.11575
 Alpha virt. eigenvalues --    0.11892   0.15407   0.15692   0.17070   0.20004
 Alpha virt. eigenvalues --    0.20079   0.25561   0.32407   0.33123   0.34908

 Mulliken charges:
               1
     1  C   -0.101145
     2  C    0.000957
     3  N   -0.199483
     4  H    0.106575
     5  H    0.097668
     6  H    0.095427
 Sum of Mulliken charges =   0.00000

 Dipole moment (field-independent basis, Debye):
    X=              4.0761    Y=              0.0108    Z=             -0.0254  Tot=              4.0762
 Quadrupole moment (field-independent basis, Debye-Ang):
   XX=            -21.1442   YY=            -17.7494   ZZ=            -17.7316
   XY=             -0.0587   XZ=              0.1124   YZ=             -0.0635

 Normal termination of Gaussian 09 at Wed Aug 26 14:17:07 2020.
