 Gaussian 09, Revision D.01,
 Gaussian 09:  ES64L-G09RevD.01 24-Apr-2013

 --------------------
 #p B2PLYPD3/Def2QZVP
 --------------------

 ------------
 cyanomethane
 ------------
 Symbolic Z-matrix:
 Charge =  0 Multiplicity = 1

                         Standard orientation:
 ---------------------------------------------------------------------
 Center     Atomic      Atomic             Coordinates (Angstroms)
 Number     Number       Type             X           Y           Z
 ---------------------------------------------------------------------
      1          6           0        1.166925    0.008253    0.009437
      2          6           0       -0.276170    0.005494    0.018204
      3          7           0       -1.441756   -0.000238   -0.004721
      4          1           0        1.645554   -0.361308    0.928922
      5          1           0        1.613469    1.009239   -0.252692
      6          1           0        1.488736   -0.728747   -0.809030
 ---------------------------------------------------------------------

 SCF Done:  E(RB2PLYPD3) =  -132.529631281     A.U. after   12 cycles
 E2(B2PLYPD3) =    -0.1820665791D+00 E(B2PLYPD3) =    -0.13271169786033D+03

 The electronic state is 1-A.
 Alpha  occ. eigenvalues --  -14.84630 -10.68073 -10.66731  -1.03782  -0.88694
 Alpha  occ. eigenvalues --   -0.60336  -0.53325  -0.52397  -0.44975  -0.38847
 Alpha  occ. eigenvalues --   -0.38517
 Alpha virt. eigenvalues --    0.03527   0.06992   0.07127   0.10117   0.11390
 Alpha virt. eigenvalues --    0.11716   0.15380   0.15949   0.17163   0.20145
 Alpha virt. eigenvalues --    0.20170   0.25597   0.32390   0.33267   0.34702

 Mulliken charges:
               1
     1  C   -0.086980
     2  C    0.006241
     3  N   -0.209892
     4  H    0.097900
     5  H    0.098395
     6  H    0.094336
 Sum of Mulliken charges =   0.00000

 Dipole moment (field-independent basis, Debye):
    X=              4.1423    Y=             -0.0221    Z=             -0.0029  Tot=              4.1424
 Quadrupole moment (field-independent basis, Debye-Ang):
   XX=            -20.9070   YY=            -17.8231   ZZ=            -17.9523
   XY=              0.0033   XZ=              0.0480   YZ=             -0.0440

 Normal termination of Gaussian 09 at Wed Aug 26 23:03:49 2020.
