 Gaussian 09, Revision D.01,
 Gaussian 09:  ES64L-G09RevD.01 24-Apr-2013

 --------------------
 #p B2PLYPD3/Def2QZVP
 --------------------

 ------------
 cyanomethane
 ------------
 Symbolic Z-matrix:
 Charge =  0 Multiplicity = 1

                         Standard orientation:
 ---------------------------------------------------------------------
 Center     Atomic      Atomic             Coordinates (Angstroms)
 Number     Number       Type             X           Y           Z
 ---------------------------------------------------------------------
      1          6           0       -1.198557   -0.027554   -0.011219
      2          6           0        0.275815   -0.010548    0.085395
      3          7           0        1.443898    0.006820   -0.051318
      4          1           0       -1.421674   -0.281316    0.870901
      5          1           0       -1.623049   -0.575495   -0.771015
      6          1           0       -1.526108    1.037686   -0.185718
 ---------------------------------------------------------------------

 SCF Done:  E(RB2PLYPD3) =  -132.506103702     A.U. after   13 cycles
 E2(B2PLYPD3) =    -0.1822536297D+00 E(B2PLYPD3) =    -0.13268835733169D+03

 The electronic state is 1-A.
 Alpha  occ. eigenvalues --  -14.84870 -10.66915 -10.65618  -1.03316  -0.90702
 Alpha  occ. eigenvalues --   -0.60330  -0.57274  -0.52867  -0.44849  -0.38882
 Alpha  occ. eigenvalues --   -0.38488
 Alpha virt. eigenvalues --    0.03497   0.07050   0.09068   0.09899   0.10889
 Alpha virt. eigenvalues --    0.11449   0.15047   0.15522   0.17393   0.20022
 Alpha virt. eigenvalues --    0.20402   0.25403   0.32480   0.33900   0.36205

 Mulliken charges:
               1
     1  C   -0.092202
     2  C    0.006010
     3  N   -0.215687
     4  H    0.114712
     5  H    0.098637
     6  H    0.088529
 Sum of Mulliken charges =   0.00000

 Dipole moment (field-independent basis, Debye):
    X=             -4.1309    Y=             -0.0001    Z=              0.0677  Tot=              4.1314
 Quadrupole moment (field-independent basis, Debye-Ang):
   XX=            -20.9132   YY=            -17.8442   ZZ=            -17.6698
   XY=             -0.0435   XZ=              0.3753   YZ=              0.0007

 Normal termination of Gaussian 09 at Wed Aug 26 22:06:19 2020.
