 Gaussian 09, Revision D.01,
 Gaussian 09:  ES64L-G09RevD.01 24-Apr-2013

 --------------------
 #p B2PLYPD3/Def2QZVP
 --------------------

 ------------
 cyanomethane
 ------------
 Symbolic Z-matrix:
 Charge =  0 Multiplicity = 1

                         Standard orientation:
 ---------------------------------------------------------------------
 Center     Atomic      Atomic             Coordinates (Angstroms)
 Number     Number       Type             X           Y           Z
 ---------------------------------------------------------------------
      1          6           0        1.178255    0.014792   -0.002060
      2          6           0       -0.276272   -0.017281    0.001302
      3          7           0       -1.428563    0.007869   -0.001477
      4          1           0        1.536365    1.006752   -0.201326
      5          1           0        1.536508   -0.704533   -0.765140
      6          1           0        1.515165   -0.342368    0.981348
 ---------------------------------------------------------------------

 SCF Done:  E(RB2PLYPD3) =  -132.534951248     A.U. after   12 cycles
 E2(B2PLYPD3) =    -0.1803349531D+00 E(B2PLYPD3) =    -0.13271528620074D+03

 The electronic state is 1-A.
 Alpha  occ. eigenvalues --  -14.84034 -10.67242 -10.66079  -1.04144  -0.89253
 Alpha  occ. eigenvalues --   -0.59250  -0.54628  -0.53545  -0.44689  -0.39123
 Alpha  occ. eigenvalues --   -0.38920
 Alpha virt. eigenvalues --    0.03744   0.07934   0.08038   0.10158   0.11403
 Alpha virt. eigenvalues --    0.11600   0.15372   0.15799   0.16508   0.20069
 Alpha virt. eigenvalues --    0.20127   0.25396   0.32723   0.34028   0.34958

 Mulliken charges:
               1
     1  C   -0.093390
     2  C   -0.002476
     3  N   -0.206054
     4  H    0.104343
     5  H    0.098400
     6  H    0.099176
 Sum of Mulliken charges =   0.00000

 Dipole moment (field-independent basis, Debye):
    X=              4.1106    Y=             -0.0196    Z=              0.0078  Tot=              4.1107
 Quadrupole moment (field-independent basis, Debye-Ang):
   XX=            -21.1740   YY=            -17.6356   ZZ=            -17.7590
   XY=              0.0264   XZ=             -0.0122   YZ=             -0.0212

 Normal termination of Gaussian 09 at Wed Aug 26 14:06:14 2020.
