 Gaussian 09, Revision D.01,
 Gaussian 09:  ES64L-G09RevD.01 24-Apr-2013

 --------------------
 #p B2PLYPD3/Def2QZVP
 --------------------

 ------------
 cyanomethane
 ------------
 Symbolic Z-matrix:
 Charge =  0 Multiplicity = 1

                         Standard orientation:
 ---------------------------------------------------------------------
 Center     Atomic      Atomic             Coordinates (Angstroms)
 Number     Number       Type             X           Y           Z
 ---------------------------------------------------------------------
      1          6           0       -1.166644    0.010688   -0.013175
      2          6           0        0.274954    0.019879    0.021239
      3          7           0        1.436707   -0.013538   -0.005049
      4          1           0       -1.526626    0.970605   -0.317864
      5          1           0       -1.634893   -0.257614    1.012305
      6          1           0       -1.545290   -0.801628   -0.707483
 ---------------------------------------------------------------------

 SCF Done:  E(RB2PLYPD3) =  -132.529589174     A.U. after   12 cycles
 E2(B2PLYPD3) =    -0.1816714093D+00 E(B2PLYPD3) =    -0.13271126058317D+03

 The electronic state is 1-A.
 Alpha  occ. eigenvalues --  -14.84493 -10.67902 -10.66526  -1.03890  -0.88863
 Alpha  occ. eigenvalues --   -0.59926  -0.54397  -0.51978  -0.44917  -0.38924
 Alpha  occ. eigenvalues --   -0.38579
 Alpha virt. eigenvalues --    0.03524   0.06722   0.07721   0.10116   0.11307
 Alpha virt. eigenvalues --    0.11767   0.15419   0.16390   0.16434   0.20048
 Alpha virt. eigenvalues --    0.20180   0.25651   0.32270   0.33551   0.34762

 Mulliken charges:
               1
     1  C   -0.088443
     2  C    0.003020
     3  N   -0.208508
     4  H    0.104232
     5  H    0.091774
     6  H    0.097925
 Sum of Mulliken charges =   0.00000

 Dipole moment (field-independent basis, Debye):
    X=             -4.1219    Y=              0.0138    Z=             -0.0020  Tot=              4.1219
 Quadrupole moment (field-independent basis, Debye-Ang):
   XX=            -21.0018   YY=            -17.7306   ZZ=            -17.9328
   XY=              0.1258   XZ=             -0.0367   YZ=             -0.0283

 Normal termination of Gaussian 09 at Wed Aug 26 15:06:34 2020.
