 Gaussian 09, Revision D.01,
 Gaussian 09:  ES64L-G09RevD.01 24-Apr-2013

 --------------------
 #p B2PLYPD3/Def2QZVP
 --------------------

 ------------
 cyanomethane
 ------------
 Symbolic Z-matrix:
 Charge =  0 Multiplicity = 1

                         Standard orientation:
 ---------------------------------------------------------------------
 Center     Atomic      Atomic             Coordinates (Angstroms)
 Number     Number       Type             X           Y           Z
 ---------------------------------------------------------------------
      1          6           0       -1.176125    0.008753    0.018433
      2          6           0        0.263572    0.016484   -0.021224
      3          7           0        1.430731   -0.009686    0.003135
      4          1           0       -1.564626   -0.864665   -0.592270
      5          1           0       -1.543327    0.913540   -0.413931
      6          1           0       -1.431844   -0.132497    1.000995
 ---------------------------------------------------------------------

 SCF Done:  E(RB2PLYPD3) =  -132.529165517     A.U. after   12 cycles
 E2(B2PLYPD3) =    -0.1814573229D+00 E(B2PLYPD3) =    -0.13271062283951D+03

 The electronic state is 1-A.
 Alpha  occ. eigenvalues --  -14.84400 -10.66608 -10.66416  -1.03584  -0.90104
 Alpha  occ. eigenvalues --   -0.59563  -0.56207  -0.53366  -0.44718  -0.38764
 Alpha  occ. eigenvalues --   -0.38461
 Alpha virt. eigenvalues --    0.03769   0.07446   0.08296   0.10143   0.11153
 Alpha virt. eigenvalues --    0.11530   0.15425   0.15928   0.16085   0.20132
 Alpha virt. eigenvalues --    0.20228   0.25632   0.32482   0.33983   0.35541

 Mulliken charges:
               1
     1  C   -0.088022
     2  C   -0.000646
     3  N   -0.214654
     4  H    0.093883
     5  H    0.102236
     6  H    0.107202
 Sum of Mulliken charges =   0.00000

 Dipole moment (field-independent basis, Debye):
    X=             -4.1308    Y=              0.0093    Z=              0.0054  Tot=              4.1308
 Quadrupole moment (field-independent basis, Debye-Ang):
   XX=            -21.1803   YY=            -17.7116   ZZ=            -17.6931
   XY=              0.0662   XZ=              0.0764   YZ=             -0.0750

 Normal termination of Gaussian 09 at Wed Aug 26 16:03:17 2020.
