 Gaussian 09, Revision D.01,
 Gaussian 09:  ES64L-G09RevD.01 24-Apr-2013

 --------------------
 #p B2PLYPD3/Def2QZVP
 --------------------

 ------------
 cyanomethane
 ------------
 Symbolic Z-matrix:
 Charge =  0 Multiplicity = 1

                         Standard orientation:
 ---------------------------------------------------------------------
 Center     Atomic      Atomic             Coordinates (Angstroms)
 Number     Number       Type             X           Y           Z
 ---------------------------------------------------------------------
      1          6           0       -1.148678    0.018542   -0.030967
      2          6           0        0.258672    0.067214   -0.007987
      3          7           0        1.433169   -0.044713    0.003939
      4          1           0       -1.467769    1.021708    0.087174
      5          1           0       -1.566315   -0.616491    0.922943
      6          1           0       -1.658060   -0.606767   -0.803964
 ---------------------------------------------------------------------

 SCF Done:  E(RB2PLYPD3) =  -132.513063321     A.U. after   12 cycles
 E2(B2PLYPD3) =    -0.1838862412D+00 E(B2PLYPD3) =    -0.13269694956192D+03

 The electronic state is 1-A.
 Alpha  occ. eigenvalues --  -14.84968 -10.67902 -10.66889  -1.03352  -0.89506
 Alpha  occ. eigenvalues --   -0.60817  -0.55842  -0.50300  -0.45059  -0.38515
 Alpha  occ. eigenvalues --   -0.37554
 Alpha virt. eigenvalues --    0.03023   0.05537   0.07600   0.09724   0.10996
 Alpha virt. eigenvalues --    0.12239   0.15212   0.16014   0.17477   0.19935
 Alpha virt. eigenvalues --    0.20544   0.26233   0.31402   0.33052   0.35328

 Mulliken charges:
               1
     1  C   -0.085929
     2  C    0.009299
     3  N   -0.215610
     4  H    0.106444
     5  H    0.082870
     6  H    0.102925
 Sum of Mulliken charges =   0.00000

 Dipole moment (field-independent basis, Debye):
    X=             -4.1292    Y=              0.0092    Z=              0.0090  Tot=              4.1292
 Quadrupole moment (field-independent basis, Debye-Ang):
   XX=            -20.9724   YY=            -17.5538   ZZ=            -18.2599
   XY=              0.4923   XZ=             -0.0199   YZ=              0.1387

 Normal termination of Gaussian 09 at Wed Aug 26 18:06:26 2020.
