 Gaussian 09, Revision D.01,
 Gaussian 09:  ES64L-G09RevD.01 24-Apr-2013

 --------------------
 #p B2PLYPD3/Def2QZVP
 --------------------

 ------------
 cyanomethane
 ------------
 Symbolic Z-matrix:
 Charge =  0 Multiplicity = 1

                         Standard orientation:
 ---------------------------------------------------------------------
 Center     Atomic      Atomic             Coordinates (Angstroms)
 Number     Number       Type             X           Y           Z
 ---------------------------------------------------------------------
      1          6           0        1.183043   -0.015243   -0.003565
      2          6           0       -0.279533   -0.016690   -0.018786
      3          7           0       -1.444968    0.015631    0.012915
      4          1           0        1.485450   -0.841040   -0.542250
      5          1           0        1.597357   -0.031260    1.033700
      6          1           0        1.610902    0.954477   -0.447744
 ---------------------------------------------------------------------

 SCF Done:  E(RB2PLYPD3) =  -132.528175552     A.U. after   12 cycles
 E2(B2PLYPD3) =    -0.1817393025D+00 E(B2PLYPD3) =    -0.13270991485450D+03

 The electronic state is 1-A.
 Alpha  occ. eigenvalues --  -14.84602 -10.67495 -10.66697  -1.03679  -0.89058
 Alpha  occ. eigenvalues --   -0.59705  -0.55284  -0.52010  -0.44877  -0.38975
 Alpha  occ. eigenvalues --   -0.38620
 Alpha virt. eigenvalues --    0.03559   0.06862   0.08260   0.10141   0.11021
 Alpha virt. eigenvalues --    0.11620   0.15291   0.16116   0.16612   0.20025
 Alpha virt. eigenvalues --    0.20233   0.25252   0.32237   0.33631   0.35147

 Mulliken charges:
               1
     1  C   -0.084776
     2  C    0.001246
     3  N   -0.210620
     4  H    0.105870
     5  H    0.095421
     6  H    0.092859
 Sum of Mulliken charges =   0.00000

 Dipole moment (field-independent basis, Debye):
    X=              4.1426    Y=             -0.0234    Z=             -0.0063  Tot=              4.1427
 Quadrupole moment (field-independent basis, Debye-Ang):
   XX=            -20.9801   YY=            -17.7666   ZZ=            -17.8888
   XY=              0.1790   XZ=              0.1451   YZ=              0.1039

 Normal termination of Gaussian 09 at Wed Aug 26 15:09:56 2020.
