 Gaussian 09, Revision D.01,
 Gaussian 09:  ES64L-G09RevD.01 24-Apr-2013

 --------------------
 #p B2PLYPD3/Def2QZVP
 --------------------

 ------------
 cyanomethane
 ------------
 Symbolic Z-matrix:
 Charge =  0 Multiplicity = 1

                         Standard orientation:
 ---------------------------------------------------------------------
 Center     Atomic      Atomic             Coordinates (Angstroms)
 Number     Number       Type             X           Y           Z
 ---------------------------------------------------------------------
      1          6           0        1.181565    0.001923   -0.016489
      2          6           0       -0.280982   -0.001264   -0.015074
      3          7           0       -1.434658   -0.001289    0.012189
      4          1           0        1.582666   -0.025487    1.024526
      5          1           0        1.508257    0.893785   -0.437259
      6          1           0        1.548190   -0.863224   -0.483204
 ---------------------------------------------------------------------

 SCF Done:  E(RB2PLYPD3) =  -132.532276656     A.U. after   11 cycles
 E2(B2PLYPD3) =    -0.1801906001D+00 E(B2PLYPD3) =    -0.13271246725564D+03

 The electronic state is 1-A.
 Alpha  occ. eigenvalues --  -14.84172 -10.66513 -10.66235  -1.04126  -0.89683
 Alpha  occ. eigenvalues --   -0.59878  -0.55920  -0.52893  -0.44773  -0.39313
 Alpha  occ. eigenvalues --   -0.38949
 Alpha virt. eigenvalues --    0.03802   0.07802   0.08614   0.10207   0.11129
 Alpha virt. eigenvalues --    0.11639   0.15402   0.16313   0.16477   0.20013
 Alpha virt. eigenvalues --    0.20163   0.25236   0.32730   0.34161   0.35798

 Mulliken charges:
               1
     1  C   -0.075721
     2  C   -0.002376
     3  N   -0.206337
     4  H    0.087001
     5  H    0.099559
     6  H    0.097874
 Sum of Mulliken charges =   0.00000

 Dipole moment (field-independent basis, Debye):
    X=              4.1372    Y=              0.0021    Z=             -0.0046  Tot=              4.1372
 Quadrupole moment (field-independent basis, Debye-Ang):
   XX=            -20.9262   YY=            -17.5963   ZZ=            -17.8733
   XY=             -0.0385   XZ=              0.1518   YZ=             -0.0054

 Normal termination of Gaussian 09 at Thu Aug 27 00:13:00 2020.
