 Gaussian 09, Revision D.01,
 Gaussian 09:  ES64L-G09RevD.01 24-Apr-2013

 --------------------
 #p B2PLYPD3/Def2QZVP
 --------------------

 ------------
 cyanomethane
 ------------
 Symbolic Z-matrix:
 Charge =  0 Multiplicity = 1

                         Standard orientation:
 ---------------------------------------------------------------------
 Center     Atomic      Atomic             Coordinates (Angstroms)
 Number     Number       Type             X           Y           Z
 ---------------------------------------------------------------------
      1          6           0       -1.161160    0.029857    0.015097
      2          6           0        0.276890    0.012240   -0.036351
      3          7           0        1.433340   -0.024514    0.015687
      4          1           0       -1.383094    1.006497   -0.083341
      5          1           0       -1.632979   -0.453797    0.837069
      6          1           0       -1.711688   -0.633686   -0.736010
 ---------------------------------------------------------------------

 SCF Done:  E(RB2PLYPD3) =  -132.517879482     A.U. after   12 cycles
 E2(B2PLYPD3) =    -0.1811245159D+00 E(B2PLYPD3) =    -0.13269900399740D+03

 The electronic state is 1-A.
 Alpha  occ. eigenvalues --  -14.84414 -10.66457 -10.66330  -1.04140  -0.90145
 Alpha  occ. eigenvalues --   -0.61753  -0.56668  -0.50743  -0.44963  -0.39263
 Alpha  occ. eigenvalues --   -0.38492
 Alpha virt. eigenvalues --    0.03675   0.06724   0.08515   0.10123   0.10980
 Alpha virt. eigenvalues --    0.12153   0.15244   0.16788   0.17096   0.19856
 Alpha virt. eigenvalues --    0.20418   0.25825   0.32329   0.34310   0.35887

 Mulliken charges:
               1
     1  C   -0.063330
     2  C    0.005533
     3  N   -0.208404
     4  H    0.102448
     5  H    0.086671
     6  H    0.077083
 Sum of Mulliken charges =   0.00000

 Dipole moment (field-independent basis, Debye):
    X=             -4.1584    Y=             -0.0208    Z=              0.0102  Tot=              4.1585
 Quadrupole moment (field-independent basis, Debye-Ang):
   XX=            -20.5829   YY=            -17.4585   ZZ=            -18.2762
   XY=              0.5399   XZ=             -0.1360   YZ=             -0.0898

 Normal termination of Gaussian 09 at Wed Aug 26 20:20:10 2020.
