 Gaussian 09, Revision D.01,
 Gaussian 09:  ES64L-G09RevD.01 24-Apr-2013

 --------------------
 #p B2PLYPD3/Def2QZVP
 --------------------

 ------------
 cyanomethane
 ------------
 Symbolic Z-matrix:
 Charge =  0 Multiplicity = 1

                         Standard orientation:
 ---------------------------------------------------------------------
 Center     Atomic      Atomic             Coordinates (Angstroms)
 Number     Number       Type             X           Y           Z
 ---------------------------------------------------------------------
      1          6           0       -1.178140   -0.005158    0.003255
      2          6           0        0.277658    0.017143   -0.011479
      3          7           0        1.440284   -0.010818    0.003151
      4          1           0       -1.536751    0.980504   -0.241084
      5          1           0       -1.534302   -0.267289    0.968739
      6          1           0       -1.608040   -0.709398   -0.700365
 ---------------------------------------------------------------------

 SCF Done:  E(RB2PLYPD3) =  -132.534164365     A.U. after   12 cycles
 E2(B2PLYPD3) =    -0.1810538293D+00 E(B2PLYPD3) =    -0.13271521819404D+03

 The electronic state is 1-A.
 Alpha  occ. eigenvalues --  -14.84485 -10.66673 -10.66555  -1.03817  -0.89579
 Alpha  occ. eigenvalues --   -0.60304  -0.54354  -0.53846  -0.44875  -0.38929
 Alpha  occ. eigenvalues --   -0.38904
 Alpha virt. eigenvalues --    0.03812   0.07675   0.08032   0.10152   0.11318
 Alpha virt. eigenvalues --    0.11399   0.15454   0.16110   0.16767   0.20102
 Alpha virt. eigenvalues --    0.20163   0.25398   0.32730   0.34786   0.35002

 Mulliken charges:
               1
     1  C   -0.072780
     2  C    0.001030
     3  N   -0.210195
     4  H    0.093938
     5  H    0.095097
     6  H    0.092910
 Sum of Mulliken charges =   0.00000

 Dipole moment (field-independent basis, Debye):
    X=             -4.1518    Y=              0.0161    Z=              0.0063  Tot=              4.1519
 Quadrupole moment (field-independent basis, Debye-Ang):
   XX=            -20.8608   YY=            -17.7680   ZZ=            -17.8199
   XY=              0.0968   XZ=              0.0023   YZ=             -0.0128

 Normal termination of Gaussian 09 at Wed Aug 26 11:18:28 2020.
