 Gaussian 09, Revision D.01,
 Gaussian 09:  ES64L-G09RevD.01 24-Apr-2013

 --------------------
 #p B2PLYPD3/Def2QZVP
 --------------------

 ------------
 cyanomethane
 ------------
 Symbolic Z-matrix:
 Charge =  0 Multiplicity = 1

                         Standard orientation:
 ---------------------------------------------------------------------
 Center     Atomic      Atomic             Coordinates (Angstroms)
 Number     Number       Type             X           Y           Z
 ---------------------------------------------------------------------
      1          6           0       -1.186293   -0.002179    0.008654
      2          6           0        0.273851   -0.021419   -0.000417
      3          7           0        1.440774    0.010327   -0.003290
      4          1           0       -1.503568   -0.152685    0.983682
      5          1           0       -1.571161   -0.766927   -0.654592
      6          1           0       -1.536043    0.988908   -0.355477
 ---------------------------------------------------------------------

 SCF Done:  E(RB2PLYPD3) =  -132.532250518     A.U. after   12 cycles
 E2(B2PLYPD3) =    -0.1814257768D+00 E(B2PLYPD3) =    -0.13271367629457D+03

 The electronic state is 1-A.
 Alpha  occ. eigenvalues --  -14.84503 -10.66850 -10.66586  -1.03573  -0.89587
 Alpha  occ. eigenvalues --   -0.59611  -0.55206  -0.53593  -0.44771  -0.38854
 Alpha  occ. eigenvalues --   -0.38672
 Alpha virt. eigenvalues --    0.03754   0.07593   0.08220   0.10175   0.11131
 Alpha virt. eigenvalues --    0.11372   0.15338   0.16050   0.16233   0.20128
 Alpha virt. eigenvalues --    0.20179   0.25270   0.32552   0.34189   0.35234

 Mulliken charges:
               1
     1  C   -0.083877
     2  C   -0.000680
     3  N   -0.212908
     4  H    0.102508
     5  H    0.098074
     6  H    0.096883
 Sum of Mulliken charges =   0.00000

 Dipole moment (field-independent basis, Debye):
    X=             -4.1478    Y=             -0.0132    Z=              0.0110  Tot=              4.1479
 Quadrupole moment (field-independent basis, Debye-Ang):
   XX=            -21.0683   YY=            -17.7667   ZZ=            -17.7410
   XY=             -0.0377   XZ=              0.0504   YZ=              0.0037

 Normal termination of Gaussian 09 at Thu Aug 27 00:00:08 2020.
