 Gaussian 09, Revision D.01,
 Gaussian 09:  ES64L-G09RevD.01 24-Apr-2013

 --------------------
 #p B2PLYPD3/Def2QZVP
 --------------------

 ------------
 cyanomethane
 ------------
 Symbolic Z-matrix:
 Charge =  0 Multiplicity = 1

                         Standard orientation:
 ---------------------------------------------------------------------
 Center     Atomic      Atomic             Coordinates (Angstroms)
 Number     Number       Type             X           Y           Z
 ---------------------------------------------------------------------
      1          6           0       -1.164544    0.042761   -0.000596
      2          6           0        0.254588   -0.030299    0.022992
      3          7           0        1.430989    0.008581   -0.014733
      4          1           0       -1.484303   -0.216401    0.966749
      5          1           0       -1.571421   -0.863104   -0.640125
      6          1           0       -1.501464    0.944673   -0.357871
 ---------------------------------------------------------------------

 SCF Done:  E(RB2PLYPD3) =  -132.521558353     A.U. after   12 cycles
 E2(B2PLYPD3) =    -0.1826454273D+00 E(B2PLYPD3) =    -0.13270420378065D+03

 The electronic state is 1-A.
 Alpha  occ. eigenvalues --  -14.84692 -10.66762 -10.66656  -1.03285  -0.90292
 Alpha  occ. eigenvalues --   -0.60279  -0.56795  -0.52269  -0.44823  -0.38574
 Alpha  occ. eigenvalues --   -0.37910
 Alpha virt. eigenvalues --    0.03580   0.06826   0.07951   0.09954   0.11094
 Alpha virt. eigenvalues --    0.11730   0.15313   0.15532   0.16844   0.20125
 Alpha virt. eigenvalues --    0.20343   0.26070   0.31745   0.33709   0.35829

 Mulliken charges:
               1
     1  C   -0.086382
     2  C    0.004883
     3  N   -0.219185
     4  H    0.100698
     5  H    0.089079
     6  H    0.110907
 Sum of Mulliken charges =   0.00000

 Dipole moment (field-independent basis, Debye):
    X=             -4.1371    Y=             -0.0279    Z=              0.0574  Tot=              4.1376
 Quadrupole moment (field-independent basis, Debye-Ang):
   XX=            -21.1682   YY=            -17.5807   ZZ=            -17.9214
   XY=              0.0640   XZ=              0.0365   YZ=             -0.1516

 Normal termination of Gaussian 09 at Wed Aug 26 23:51:24 2020.
