 Gaussian 09, Revision D.01,
 Gaussian 09:  ES64L-G09RevD.01 24-Apr-2013

 --------------------
 #p B2PLYPD3/Def2QZVP
 --------------------

 ------------
 cyanomethane
 ------------
 Symbolic Z-matrix:
 Charge =  0 Multiplicity = 1

                         Standard orientation:
 ---------------------------------------------------------------------
 Center     Atomic      Atomic             Coordinates (Angstroms)
 Number     Number       Type             X           Y           Z
 ---------------------------------------------------------------------
      1          6           0        1.173441    0.016879   -0.033530
      2          6           0       -0.298177    0.018746    0.051575
      3          7           0       -1.433014   -0.010496   -0.026319
      4          1           0        1.623475    0.953676   -0.236060
      5          1           0        1.604856   -0.781401   -0.678911
      6          1           0        1.551187   -0.312550    0.990933
 ---------------------------------------------------------------------

 SCF Done:  E(RB2PLYPD3) =  -132.529575509     A.U. after   12 cycles
 E2(B2PLYPD3) =    -0.1795783436D+00 E(B2PLYPD3) =    -0.13270915385311D+03

 The electronic state is 1-A.
 Alpha  occ. eigenvalues --  -14.83935 -10.67631 -10.66056  -1.04899  -0.88436
 Alpha  occ. eigenvalues --   -0.60157  -0.54306  -0.51505  -0.44912  -0.39870
 Alpha  occ. eigenvalues --   -0.39206
 Alpha virt. eigenvalues --    0.03579   0.07531   0.08195   0.10098   0.11349
 Alpha virt. eigenvalues --    0.11939   0.15451   0.15731   0.18091   0.19959
 Alpha virt. eigenvalues --    0.20156   0.25403   0.32517   0.33365   0.35503

 Mulliken charges:
               1
     1  C   -0.080846
     2  C    0.002978
     3  N   -0.195487
     4  H    0.099244
     5  H    0.092920
     6  H    0.081192
 Sum of Mulliken charges =   0.00000

 Dipole moment (field-independent basis, Debye):
    X=              4.1016    Y=             -0.0064    Z=              0.0708  Tot=              4.1023
 Quadrupole moment (field-independent basis, Debye-Ang):
   XX=            -20.7506   YY=            -17.6476   ZZ=            -18.0094
   XY=             -0.1012   XZ=             -0.1236   YZ=             -0.0102

 Normal termination of Gaussian 09 at Wed Aug 26 22:24:36 2020.
