 Gaussian 09, Revision D.01,
 Gaussian 09:  ES64L-G09RevD.01 24-Apr-2013

 --------------------
 #p B2PLYPD3/Def2QZVP
 --------------------

 ------------
 cyanomethane
 ------------
 Symbolic Z-matrix:
 Charge =  0 Multiplicity = 1

                         Standard orientation:
 ---------------------------------------------------------------------
 Center     Atomic      Atomic             Coordinates (Angstroms)
 Number     Number       Type             X           Y           Z
 ---------------------------------------------------------------------
      1          6           0       -1.175611   -0.015979    0.017300
      2          6           0        0.267630    0.025918   -0.018672
      3          7           0        1.427866   -0.014302    0.008120
      4          1           0       -1.482128    1.005267   -0.070808
      5          1           0       -1.532565   -0.430847    0.857570
      6          1           0       -1.532481   -0.533940   -0.835371
 ---------------------------------------------------------------------

 SCF Done:  E(RB2PLYPD3) =  -132.528598269     A.U. after   12 cycles
 E2(B2PLYPD3) =    -0.1805514441D+00 E(B2PLYPD3) =    -0.13270914971283D+03

 The electronic state is 1-A.
 Alpha  occ. eigenvalues --  -14.84262 -10.66275 -10.65615  -1.03858  -0.90632
 Alpha  occ. eigenvalues --   -0.60464  -0.55856  -0.54464  -0.44743  -0.39013
 Alpha  occ. eigenvalues --   -0.38733
 Alpha virt. eigenvalues --    0.03960   0.08222   0.08383   0.10085   0.11279
 Alpha virt. eigenvalues --    0.11447   0.15524   0.15677   0.16802   0.20134
 Alpha virt. eigenvalues --    0.20194   0.25662   0.33049   0.34550   0.35786

 Mulliken charges:
               1
     1  C   -0.072702
     2  C   -0.000014
     3  N   -0.212058
     4  H    0.093086
     5  H    0.098543
     6  H    0.093144
 Sum of Mulliken charges =   0.00000

 Dipole moment (field-independent basis, Debye):
    X=             -4.1351    Y=              0.0271    Z=             -0.0196  Tot=              4.1353
 Quadrupole moment (field-independent basis, Debye-Ang):
   XX=            -20.9850   YY=            -17.6834   ZZ=            -17.6655
   XY=              0.1017   XZ=             -0.0233   YZ=             -0.0373

 Normal termination of Gaussian 09 at Wed Aug 26 16:20:20 2020.
