 Gaussian 09, Revision D.01,
 Gaussian 09:  ES64L-G09RevD.01 24-Apr-2013

 --------------------
 #p B2PLYPD3/Def2QZVP
 --------------------

 ------------
 cyanomethane
 ------------
 Symbolic Z-matrix:
 Charge =  0 Multiplicity = 1

                         Standard orientation:
 ---------------------------------------------------------------------
 Center     Atomic      Atomic             Coordinates (Angstroms)
 Number     Number       Type             X           Y           Z
 ---------------------------------------------------------------------
      1          6           0       -1.166735    0.002654    0.009127
      2          6           0        0.271407    0.006361   -0.024546
      3          7           0        1.434358   -0.004320    0.009381
      4          1           0       -1.585645   -0.772292   -0.679198
      5          1           0       -1.557508    0.975327   -0.302165
      6          1           0       -1.525384   -0.226890    1.008215
 ---------------------------------------------------------------------

 SCF Done:  E(RB2PLYPD3) =  -132.533885365     A.U. after   11 cycles
 E2(B2PLYPD3) =    -0.1813957445D+00 E(B2PLYPD3) =    -0.13271528110950D+03

 The electronic state is 1-A.
 Alpha  occ. eigenvalues --  -14.84461 -10.67242 -10.66477  -1.03829  -0.89347
 Alpha  occ. eigenvalues --   -0.60159  -0.54132  -0.53312  -0.44881  -0.38804
 Alpha  occ. eigenvalues --   -0.38704
 Alpha virt. eigenvalues --    0.03707   0.07354   0.07617   0.10115   0.11424
 Alpha virt. eigenvalues --    0.11554   0.15511   0.16276   0.16438   0.20115
 Alpha virt. eigenvalues --    0.20154   0.25716   0.32690   0.34266   0.34708

 Mulliken charges:
               1
     1  C   -0.082049
     2  C    0.001773
     3  N   -0.210125
     4  H    0.093935
     5  H    0.097395
     6  H    0.099072
 Sum of Mulliken charges =   0.00000

 Dipole moment (field-independent basis, Debye):
    X=             -4.1329    Y=              0.0044    Z=             -0.0048  Tot=              4.1329
 Quadrupole moment (field-independent basis, Debye-Ang):
   XX=            -20.9772   YY=            -17.7818   ZZ=            -17.8046
   XY=              0.0409   XZ=             -0.0231   YZ=             -0.0293

 Normal termination of Gaussian 09 at Thu Aug 27 00:11:45 2020.
