 Gaussian 09, Revision D.01,
 Gaussian 09:  ES64L-G09RevD.01 24-Apr-2013

 --------------------
 #p B2PLYPD3/Def2QZVP
 --------------------

 ------------
 cyanomethane
 ------------
 Symbolic Z-matrix:
 Charge =  0 Multiplicity = 1

                         Standard orientation:
 ---------------------------------------------------------------------
 Center     Atomic      Atomic             Coordinates (Angstroms)
 Number     Number       Type             X           Y           Z
 ---------------------------------------------------------------------
      1          6           0        1.180739   -0.014289   -0.006484
      2          6           0       -0.292868    0.005269    0.021629
      3          7           0       -1.438748   -0.001277   -0.011544
      4          1           0        1.583987    0.939128   -0.349724
      5          1           0        1.589541   -0.739849   -0.618522
      6          1           0        1.570480   -0.136217    0.958180
 ---------------------------------------------------------------------

 SCF Done:  E(RB2PLYPD3) =  -132.532323592     A.U. after   11 cycles
 E2(B2PLYPD3) =    -0.1794768465D+00 E(B2PLYPD3) =    -0.13271180043882D+03

 The electronic state is 1-A.
 Alpha  occ. eigenvalues --  -14.84124 -10.66255 -10.66198  -1.04506  -0.89588
 Alpha  occ. eigenvalues --   -0.60661  -0.54764  -0.53287  -0.44890  -0.39601
 Alpha  occ. eigenvalues --   -0.39378
 Alpha virt. eigenvalues --    0.03865   0.08154   0.08527   0.10209   0.11333
 Alpha virt. eigenvalues --    0.11560   0.15459   0.16410   0.17189   0.20012
 Alpha virt. eigenvalues --    0.20082   0.25091   0.32837   0.34731   0.35736

 Mulliken charges:
               1
     1  C   -0.060205
     2  C    0.000572
     3  N   -0.201624
     4  H    0.083493
     5  H    0.090598
     6  H    0.087167
 Sum of Mulliken charges =   0.00000

 Dipole moment (field-independent basis, Debye):
    X=              4.1462    Y=              0.0070    Z=              0.0257  Tot=              4.1463
 Quadrupole moment (field-independent basis, Debye-Ang):
   XX=            -20.6245   YY=            -17.7980   ZZ=            -17.7790
   XY=              0.0107   XZ=             -0.0598   YZ=              0.0450

 Normal termination of Gaussian 09 at Wed Aug 26 11:30:38 2020.
