 Gaussian 09, Revision D.01,
 Gaussian 09:  ES64L-G09RevD.01 24-Apr-2013

 --------------------
 #p B2PLYPD3/Def2QZVP
 --------------------

 ------------
 cyanomethane
 ------------
 Symbolic Z-matrix:
 Charge =  0 Multiplicity = 1

                         Standard orientation:
 ---------------------------------------------------------------------
 Center     Atomic      Atomic             Coordinates (Angstroms)
 Number     Number       Type             X           Y           Z
 ---------------------------------------------------------------------
      1          6           0        1.174090   -0.010731   -0.005640
      2          6           0       -0.261190    0.050930    0.014371
      3          7           0       -1.422064   -0.028475   -0.015013
      4          1           0        1.484248    0.941312   -0.258874
      5          1           0        1.604702   -0.740643   -0.625390
      6          1           0        1.388101   -0.242544    0.936968
 ---------------------------------------------------------------------

 SCF Done:  E(RB2PLYPD3) =  -132.521003263     A.U. after   13 cycles
 E2(B2PLYPD3) =    -0.1807482968D+00 E(B2PLYPD3) =    -0.13270175155970D+03

 The electronic state is 1-A.
 Alpha  occ. eigenvalues --  -14.84276 -10.66258 -10.64949  -1.03797  -0.91384
 Alpha  occ. eigenvalues --   -0.60333  -0.56780  -0.54871  -0.44709  -0.38810
 Alpha  occ. eigenvalues --   -0.38719
 Alpha virt. eigenvalues --    0.03929   0.07856   0.09150   0.10025   0.11201
 Alpha virt. eigenvalues --    0.11465   0.15146   0.15690   0.17061   0.20161
 Alpha virt. eigenvalues --    0.20282   0.25883   0.33264   0.35305   0.35647

 Mulliken charges:
               1
     1  C   -0.077160
     2  C    0.000890
     3  N   -0.214524
     4  H    0.097399
     5  H    0.092890
     6  H    0.100506
 Sum of Mulliken charges =   0.00000

 Dipole moment (field-independent basis, Debye):
    X=              4.1261    Y=              0.0283    Z=              0.0528  Tot=              4.1265
 Quadrupole moment (field-independent basis, Debye-Ang):
   XX=            -20.9985   YY=            -17.5393   ZZ=            -17.7270
   XY=             -0.2237   XZ=             -0.1447   YZ=             -0.0455

 Normal termination of Gaussian 09 at Wed Aug 26 22:17:26 2020.
