 Gaussian 09, Revision D.01,
 Gaussian 09:  ES64L-G09RevD.01 24-Apr-2013

 --------------------
 #p B2PLYPD3/Def2QZVP
 --------------------

 ------------
 cyanomethane
 ------------
 Symbolic Z-matrix:
 Charge =  0 Multiplicity = 1

                         Standard orientation:
 ---------------------------------------------------------------------
 Center     Atomic      Atomic             Coordinates (Angstroms)
 Number     Number       Type             X           Y           Z
 ---------------------------------------------------------------------
      1          6           0       -1.193256   -0.015786    0.013445
      2          6           0        0.289988    0.019808   -0.013543
      3          7           0        1.432647   -0.003339    0.006240
      4          1           0       -1.507248   -0.475434    0.883011
      5          1           0       -1.491393   -0.557219   -0.867458
      6          1           0       -1.610273    1.031891   -0.058651
 ---------------------------------------------------------------------

 SCF Done:  E(RB2PLYPD3) =  -132.532498122     A.U. after   12 cycles
 E2(B2PLYPD3) =    -0.1793809262D+00 E(B2PLYPD3) =    -0.13271187904775D+03

 The electronic state is 1-A.
 Alpha  occ. eigenvalues --  -14.83809 -10.67071 -10.65915  -1.04475  -0.89091
 Alpha  occ. eigenvalues --   -0.58938  -0.55241  -0.53173  -0.44627  -0.39544
 Alpha  occ. eigenvalues --   -0.39301
 Alpha virt. eigenvalues --    0.03781   0.08067   0.08774   0.10239   0.11320
 Alpha virt. eigenvalues --    0.11566   0.15201   0.15955   0.16538   0.20007
 Alpha virt. eigenvalues --    0.20059   0.24886   0.32376   0.34244   0.35387

 Mulliken charges:
               1
     1  C   -0.091248
     2  C   -0.006499
     3  N   -0.200547
     4  H    0.104598
     5  H    0.099939
     6  H    0.093758
 Sum of Mulliken charges =   0.00000

 Dipole moment (field-independent basis, Debye):
    X=             -4.1136    Y=             -0.0103    Z=             -0.0155  Tot=              4.1137
 Quadrupole moment (field-independent basis, Debye-Ang):
   XX=            -21.0988   YY=            -17.7105   ZZ=            -17.6555
   XY=             -0.0444   XZ=             -0.0284   YZ=             -0.0297

 Normal termination of Gaussian 09 at Wed Aug 26 13:15:23 2020.
