 Gaussian 09, Revision D.01,
 Gaussian 09:  ES64L-G09RevD.01 24-Apr-2013

 --------------------
 #p B2PLYPD3/Def2QZVP
 --------------------

 ------------
 cyanomethane
 ------------
 Symbolic Z-matrix:
 Charge =  0 Multiplicity = 1

                         Standard orientation:
 ---------------------------------------------------------------------
 Center     Atomic      Atomic             Coordinates (Angstroms)
 Number     Number       Type             X           Y           Z
 ---------------------------------------------------------------------
      1          6           0       -1.189746   -0.011244   -0.013174
      2          6           0        0.272842    0.015113    0.016773
      3          7           0        1.444186   -0.011476   -0.005998
      4          1           0       -1.469503    0.888954   -0.492311
      5          1           0       -1.555492    0.023069    0.994406
      6          1           0       -1.582885   -0.854906   -0.481702
 ---------------------------------------------------------------------

 SCF Done:  E(RB2PLYPD3) =  -132.530785713     A.U. after   12 cycles
 E2(B2PLYPD3) =    -0.1816429377D+00 E(B2PLYPD3) =    -0.13271242865050D+03

 The electronic state is 1-A.
 Alpha  occ. eigenvalues --  -14.84639 -10.66752 -10.66287  -1.03405  -0.89994
 Alpha  occ. eigenvalues --   -0.60064  -0.55299  -0.54182  -0.44794  -0.38802
 Alpha  occ. eigenvalues --   -0.38610
 Alpha virt. eigenvalues --    0.03871   0.07779   0.08224   0.10127   0.11126
 Alpha virt. eigenvalues --    0.11268   0.15298   0.15685   0.16774   0.20164
 Alpha virt. eigenvalues --    0.20219   0.25256   0.32630   0.34633   0.35453

 Mulliken charges:
               1
     1  C   -0.075283
     2  C    0.000727
     3  N   -0.215462
     4  H    0.098492
     5  H    0.092545
     6  H    0.098982
 Sum of Mulliken charges =   0.00000

 Dipole moment (field-independent basis, Debye):
    X=             -4.1665    Y=              0.0265    Z=              0.0186  Tot=              4.1666
 Quadrupole moment (field-independent basis, Debye-Ang):
   XX=            -20.9723   YY=            -17.6881   ZZ=            -17.8406
   XY=              0.1159   XZ=             -0.0258   YZ=              0.0093

 Normal termination of Gaussian 09 at Wed Aug 26 10:38:56 2020.
