 Gaussian 09, Revision D.01,
 Gaussian 09:  ES64L-G09RevD.01 24-Apr-2013

 --------------------
 #p B2PLYPD3/Def2QZVP
 --------------------

 ------------
 cyanomethane
 ------------
 Symbolic Z-matrix:
 Charge =  0 Multiplicity = 1

                         Standard orientation:
 ---------------------------------------------------------------------
 Center     Atomic      Atomic             Coordinates (Angstroms)
 Number     Number       Type             X           Y           Z
 ---------------------------------------------------------------------
      1          6           0        1.149969    0.024183   -0.036625
      2          6           0       -0.294896   -0.057872    0.002059
      3          7           0       -1.421057    0.016609    0.011386
      4          1           0        1.708942    0.084118    1.026292
      5          1           0        1.416641    0.912737   -0.493627
      6          1           0        1.691376   -0.910983   -0.404977
 ---------------------------------------------------------------------

 SCF Done:  E(RB2PLYPD3) =  -132.519241318     A.U. after   12 cycles
 E2(B2PLYPD3) =    -0.1792638569D+00 E(B2PLYPD3) =    -0.13269850517495D+03

 The electronic state is 1-A.
 Alpha  occ. eigenvalues --  -14.83703 -10.67915 -10.65716  -1.05391  -0.88580
 Alpha  occ. eigenvalues --   -0.60351  -0.55316  -0.49917  -0.44947  -0.40056
 Alpha  occ. eigenvalues --   -0.39048
 Alpha virt. eigenvalues --    0.03417   0.06634   0.08124   0.10232   0.11636
 Alpha virt. eigenvalues --    0.12421   0.15406   0.16893   0.17388   0.19747
 Alpha virt. eigenvalues --    0.20122   0.25828   0.31762   0.32953   0.36036

 Mulliken charges:
               1
     1  C   -0.081981
     2  C    0.002123
     3  N   -0.189761
     4  H    0.073431
     5  H    0.105136
     6  H    0.091053
 Sum of Mulliken charges =   0.00000

 Dipole moment (field-independent basis, Debye):
    X=              4.0736    Y=             -0.0194    Z=              0.0009  Tot=              4.0736
 Quadrupole moment (field-independent basis, Debye-Ang):
   XX=            -20.6470   YY=            -17.5549   ZZ=            -18.1749
   XY=             -0.0802   XZ=              0.2725   YZ=             -0.1230

 Normal termination of Gaussian 09 at Wed Aug 26 16:37:26 2020.
