 Gaussian 09, Revision D.01,
 Gaussian 09:  ES64L-G09RevD.01 24-Apr-2013

 --------------------
 #p B2PLYPD3/Def2QZVP
 --------------------

 ------------
 cyanomethane
 ------------
 Symbolic Z-matrix:
 Charge =  0 Multiplicity = 1

                         Standard orientation:
 ---------------------------------------------------------------------
 Center     Atomic      Atomic             Coordinates (Angstroms)
 Number     Number       Type             X           Y           Z
 ---------------------------------------------------------------------
      1          6           0        1.197705    0.002761   -0.005128
      2          6           0       -0.278379    0.033658    0.006000
      3          7           0       -1.441948   -0.018783   -0.005672
      4          1           0        1.526081    0.956078   -0.302645
      5          1           0        1.563272   -0.797623   -0.670555
      6          1           0        1.488326   -0.245488    1.007671
 ---------------------------------------------------------------------

 SCF Done:  E(RB2PLYPD3) =  -132.532330840     A.U. after   12 cycles
 E2(B2PLYPD3) =    -0.1812703589D+00 E(B2PLYPD3) =    -0.13271360119879D+03

 The electronic state is 1-A.
 Alpha  occ. eigenvalues --  -14.84392 -10.67093 -10.66508  -1.03601  -0.89307
 Alpha  occ. eigenvalues --   -0.58906  -0.55347  -0.53594  -0.44674  -0.38938
 Alpha  occ. eigenvalues --   -0.38742
 Alpha virt. eigenvalues --    0.03713   0.07716   0.08466   0.10173   0.10997
 Alpha virt. eigenvalues --    0.11370   0.15189   0.15642   0.16373   0.20084
 Alpha virt. eigenvalues --    0.20193   0.24999   0.32478   0.34207   0.35139

 Mulliken charges:
               1
     1  C   -0.091688
     2  C   -0.002548
     3  N   -0.211871
     4  H    0.104897
     5  H    0.100022
     6  H    0.101188
 Sum of Mulliken charges =   0.00000

 Dipole moment (field-independent basis, Debye):
    X=              4.1407    Y=              0.0158    Z=              0.0202  Tot=              4.1408
 Quadrupole moment (field-independent basis, Debye-Ang):
   XX=            -21.1881   YY=            -17.6593   ZZ=            -17.7959
   XY=             -0.1377   XZ=             -0.0557   YZ=             -0.0396

 Normal termination of Gaussian 09 at Wed Aug 26 12:07:34 2020.
