 Gaussian 09, Revision D.01,
 Gaussian 09:  ES64L-G09RevD.01 24-Apr-2013

 --------------------
 #p B2PLYPD3/Def2QZVP
 --------------------

 ------------
 cyanomethane
 ------------
 Symbolic Z-matrix:
 Charge =  0 Multiplicity = 1

                         Standard orientation:
 ---------------------------------------------------------------------
 Center     Atomic      Atomic             Coordinates (Angstroms)
 Number     Number       Type             X           Y           Z
 ---------------------------------------------------------------------
      1          6           0       -1.173112    0.001336    0.006844
      2          6           0        0.274798   -0.012069    0.033571
      3          7           0        1.442054    0.012829   -0.021190
      4          1           0       -1.496661   -0.439344    0.896671
      5          1           0       -1.547809   -0.629180   -0.856176
      6          1           0       -1.660020    1.043120   -0.134656
 ---------------------------------------------------------------------

 SCF Done:  E(RB2PLYPD3) =  -132.526935692     A.U. after   12 cycles
 E2(B2PLYPD3) =    -0.1821684927D+00 E(B2PLYPD3) =    -0.13270910418502D+03

 The electronic state is 1-A.
 Alpha  occ. eigenvalues --  -14.84684 -10.67706 -10.66742  -1.03636  -0.89052
 Alpha  occ. eigenvalues --   -0.59891  -0.54543  -0.52176  -0.44935  -0.38783
 Alpha  occ. eigenvalues --   -0.38532
 Alpha virt. eigenvalues --    0.03445   0.06547   0.08041   0.10078   0.11182
 Alpha virt. eigenvalues --    0.11636   0.15420   0.15749   0.17021   0.20070
 Alpha virt. eigenvalues --    0.20259   0.25569   0.32292   0.33595   0.34673

 Mulliken charges:
               1
     1  C   -0.087181
     2  C    0.003544
     3  N   -0.211407
     4  H    0.103436
     5  H    0.095338
     6  H    0.096270
 Sum of Mulliken charges =   0.00000

 Dipole moment (field-independent basis, Debye):
    X=             -4.1357    Y=             -0.0461    Z=              0.0318  Tot=              4.1361
 Quadrupole moment (field-independent basis, Debye-Ang):
   XX=            -20.9728   YY=            -17.8267   ZZ=            -17.8682
   XY=             -0.1153   XZ=              0.1610   YZ=             -0.0589

 Normal termination of Gaussian 09 at Wed Aug 26 14:15:13 2020.
