 Gaussian 09, Revision D.01,
 Gaussian 09:  ES64L-G09RevD.01 24-Apr-2013

 --------------------
 #p B2PLYPD3/Def2QZVP
 --------------------

 ------------
 cyanomethane
 ------------
 Symbolic Z-matrix:
 Charge =  0 Multiplicity = 1

                         Standard orientation:
 ---------------------------------------------------------------------
 Center     Atomic      Atomic             Coordinates (Angstroms)
 Number     Number       Type             X           Y           Z
 ---------------------------------------------------------------------
      1          6           0       -1.203772   -0.004128    0.022166
      2          6           0        0.264449    0.015050   -0.042521
      3          7           0        1.446754   -0.004472    0.004548
      4          1           0       -1.579712   -0.897062   -0.497942
      5          1           0       -1.630683    0.915743   -0.424328
      6          1           0       -1.280949   -0.052914    1.012563
 ---------------------------------------------------------------------

 SCF Done:  E(RB2PLYPD3) =  -132.519578832     A.U. after   13 cycles
 E2(B2PLYPD3) =    -0.1829574906D+00 E(B2PLYPD3) =    -0.13270253632226D+03

 The electronic state is 1-A.
 Alpha  occ. eigenvalues --  -14.84791 -10.67002 -10.66790  -1.02914  -0.90175
 Alpha  occ. eigenvalues --   -0.58746  -0.56389  -0.53844  -0.44613  -0.38332
 Alpha  occ. eigenvalues --   -0.38318
 Alpha virt. eigenvalues --    0.03784   0.07215   0.08433   0.10248   0.10993
 Alpha virt. eigenvalues --    0.11103   0.14749   0.15368   0.16356   0.20217
 Alpha virt. eigenvalues --    0.20265   0.25125   0.31819   0.34335   0.35463

 Mulliken charges:
               1
     1  C   -0.101395
     2  C   -0.001249
     3  N   -0.222150
     4  H    0.103057
     5  H    0.102009
     6  H    0.119728
 Sum of Mulliken charges =   0.00000

 Dipole moment (field-independent basis, Debye):
    X=             -4.1632    Y=             -0.0011    Z=              0.0150  Tot=              4.1632
 Quadrupole moment (field-independent basis, Debye-Ang):
   XX=            -21.2824   YY=            -17.7225   ZZ=            -17.7816
   XY=             -0.0182   XZ=              0.2288   YZ=              0.0000

 Normal termination of Gaussian 09 at Wed Aug 26 22:50:56 2020.
