 Gaussian 09, Revision D.01,
 Gaussian 09:  ES64L-G09RevD.01 24-Apr-2013

 --------------------
 #p B2PLYPD3/Def2QZVP
 --------------------

 ------------
 cyanomethane
 ------------
 Symbolic Z-matrix:
 Charge =  0 Multiplicity = 1

                         Standard orientation:
 ---------------------------------------------------------------------
 Center     Atomic      Atomic             Coordinates (Angstroms)
 Number     Number       Type             X           Y           Z
 ---------------------------------------------------------------------
      1          6           0       -1.177065    0.001348   -0.002855
      2          6           0        0.276951    0.006888    0.027564
      3          7           0        1.440735   -0.004908   -0.015750
      4          1           0       -1.547908    1.027025   -0.098658
      5          1           0       -1.548108   -0.445981    0.904709
      6          1           0       -1.588448   -0.596107   -0.844060
 ---------------------------------------------------------------------

 SCF Done:  E(RB2PLYPD3) =  -132.533708860     A.U. after   12 cycles
 E2(B2PLYPD3) =    -0.1814588784D+00 E(B2PLYPD3) =    -0.13271516773793D+03

 The electronic state is 1-A.
 Alpha  occ. eigenvalues --  -14.84532 -10.67271 -10.66601  -1.03754  -0.89166
 Alpha  occ. eigenvalues --   -0.59975  -0.54239  -0.53200  -0.44880  -0.38868
 Alpha  occ. eigenvalues --   -0.38772
 Alpha virt. eigenvalues --    0.03678   0.07323   0.07891   0.10129   0.11268
 Alpha virt. eigenvalues --    0.11491   0.15418   0.16067   0.16669   0.20093
 Alpha virt. eigenvalues --    0.20170   0.25447   0.32630   0.34346   0.34710

 Mulliken charges:
               1
     1  C   -0.081250
     2  C    0.001406
     3  N   -0.210246
     4  H    0.098071
     5  H    0.097036
     6  H    0.094983
 Sum of Mulliken charges =   0.00000

 Dipole moment (field-independent basis, Debye):
    X=             -4.1414    Y=             -0.0015    Z=              0.0261  Tot=              4.1415
 Quadrupole moment (field-independent basis, Debye-Ang):
   XX=            -20.9558   YY=            -17.7574   ZZ=            -17.8614
   XY=              0.0686   XZ=              0.1034   YZ=             -0.0294

 Normal termination of Gaussian 09 at Thu Aug 27 00:02:22 2020.
