 Gaussian 09, Revision D.01,
 Gaussian 09:  ES64L-G09RevD.01 24-Apr-2013

 --------------------
 #p B2PLYPD3/Def2QZVP
 --------------------

 ------------
 cyanomethane
 ------------
 Symbolic Z-matrix:
 Charge =  0 Multiplicity = 1

                         Standard orientation:
 ---------------------------------------------------------------------
 Center     Atomic      Atomic             Coordinates (Angstroms)
 Number     Number       Type             X           Y           Z
 ---------------------------------------------------------------------
      1          6           0        1.145061    0.014589    0.014394
      2          6           0       -0.262429    0.012758   -0.061932
      3          7           0       -1.429529   -0.005149    0.030162
      4          1           0        1.614687    1.003727   -0.111504
      5          1           0        1.549190   -0.694342   -0.769386
      6          1           0        1.547035   -0.437421    0.954982
 ---------------------------------------------------------------------

 SCF Done:  E(RB2PLYPD3) =  -132.527896696     A.U. after   12 cycles
 E2(B2PLYPD3) =    -0.1825375832D+00 E(B2PLYPD3) =    -0.13271043427894D+03

 The electronic state is 1-A.
 Alpha  occ. eigenvalues --  -14.84739 -10.67461 -10.66642  -1.03698  -0.89456
 Alpha  occ. eigenvalues --   -0.60980  -0.54056  -0.52370  -0.45050  -0.38611
 Alpha  occ. eigenvalues --   -0.38197
 Alpha virt. eigenvalues --    0.03522   0.06586   0.07081   0.09936   0.11373
 Alpha virt. eigenvalues --    0.11893   0.15736   0.15873   0.17206   0.20110
 Alpha virt. eigenvalues --    0.20250   0.26377   0.32660   0.33822   0.34729

 Mulliken charges:
               1
     1  C   -0.078781
     2  C    0.008024
     3  N   -0.212418
     4  H    0.098924
     5  H    0.089584
     6  H    0.094666
 Sum of Mulliken charges =   0.00000

 Dipole moment (field-independent basis, Debye):
    X=              4.1252    Y=             -0.0269    Z=             -0.0269  Tot=              4.1254
 Quadrupole moment (field-independent basis, Debye-Ang):
   XX=            -20.8690   YY=            -17.7126   ZZ=            -18.0139
   XY=             -0.0583   XZ=              0.1824   YZ=             -0.0201

 Normal termination of Gaussian 09 at Wed Aug 26 22:35:37 2020.
