 Gaussian 09, Revision D.01,
 Gaussian 09:  ES64L-G09RevD.01 24-Apr-2013

 --------------------
 #p B2PLYPD3/Def2QZVP
 --------------------

 ------------
 cyanomethane
 ------------
 Symbolic Z-matrix:
 Charge =  0 Multiplicity = 1

                         Standard orientation:
 ---------------------------------------------------------------------
 Center     Atomic      Atomic             Coordinates (Angstroms)
 Number     Number       Type             X           Y           Z
 ---------------------------------------------------------------------
      1          6           0        1.178984   -0.012775   -0.016478
      2          6           0       -0.279440    0.035399    0.014708
      3          7           0       -1.445123   -0.019400   -0.006303
      4          1           0        1.542918    1.028266   -0.024220
      5          1           0        1.593915   -0.548801   -0.828930
      6          1           0        1.581763   -0.479412    0.907896
 ---------------------------------------------------------------------

 SCF Done:  E(RB2PLYPD3) =  -132.531916865     A.U. after   12 cycles
 E2(B2PLYPD3) =    -0.1817191666D+00 E(B2PLYPD3) =    -0.13271363603150D+03

 The electronic state is 1-A.
 Alpha  occ. eigenvalues --  -14.84673 -10.67212 -10.66770  -1.03687  -0.89129
 Alpha  occ. eigenvalues --   -0.60405  -0.54119  -0.52992  -0.44946  -0.38921
 Alpha  occ. eigenvalues --   -0.38706
 Alpha virt. eigenvalues --    0.03696   0.07354   0.07672   0.10050   0.11290
 Alpha virt. eigenvalues --    0.11449   0.15408   0.15929   0.17073   0.20084
 Alpha virt. eigenvalues --    0.20207   0.25441   0.32524   0.34040   0.35093

 Mulliken charges:
               1
     1  C   -0.076620
     2  C    0.004089
     3  N   -0.211043
     4  H    0.093494
     5  H    0.098800
     6  H    0.091280
 Sum of Mulliken charges =   0.00000

 Dipole moment (field-independent basis, Debye):
    X=              4.1469    Y=              0.0213    Z=              0.0140  Tot=              4.1470
 Quadrupole moment (field-independent basis, Debye-Ang):
   XX=            -20.8686   YY=            -17.8007   ZZ=            -17.8950
   XY=             -0.1521   XZ=             -0.0185   YZ=              0.0465

 Normal termination of Gaussian 09 at Wed Aug 26 13:28:24 2020.
