 Gaussian 09, Revision D.01,
 Gaussian 09:  ES64L-G09RevD.01 24-Apr-2013

 --------------------
 #p B2PLYPD3/Def2QZVP
 --------------------

 ------------
 cyanomethane
 ------------
 Symbolic Z-matrix:
 Charge =  0 Multiplicity = 1

                         Standard orientation:
 ---------------------------------------------------------------------
 Center     Atomic      Atomic             Coordinates (Angstroms)
 Number     Number       Type             X           Y           Z
 ---------------------------------------------------------------------
      1          6           0       -1.177650   -0.010772   -0.005473
      2          6           0        0.283219    0.010527    0.002720
      3          7           0        1.438452   -0.001185    0.001031
      4          1           0       -1.589982   -0.075777    1.007734
      5          1           0       -1.517082   -0.842265   -0.566191
      6          1           0       -1.595517    0.927809   -0.432241
 ---------------------------------------------------------------------

 SCF Done:  E(RB2PLYPD3) =  -132.534451705     A.U. after   11 cycles
 E2(B2PLYPD3) =    -0.1805599724D+00 E(B2PLYPD3) =    -0.13271501167690D+03

 The electronic state is 1-A.
 Alpha  occ. eigenvalues --  -14.84290 -10.67135 -10.66374  -1.04121  -0.89133
 Alpha  occ. eigenvalues --   -0.60007  -0.54507  -0.52926  -0.44855  -0.39190
 Alpha  occ. eigenvalues --   -0.39008
 Alpha virt. eigenvalues --    0.03748   0.07599   0.08076   0.10192   0.11343
 Alpha virt. eigenvalues --    0.11561   0.15390   0.16490   0.16504   0.20045
 Alpha virt. eigenvalues --    0.20119   0.25294   0.32596   0.34300   0.35116

 Mulliken charges:
               1
     1  C   -0.078129
     2  C   -0.000220
     3  N   -0.205865
     4  H    0.092456
     5  H    0.099520
     6  H    0.092238
 Sum of Mulliken charges =   0.00000

 Dipole moment (field-independent basis, Debye):
    X=             -4.1374    Y=             -0.0027    Z=              0.0057  Tot=              4.1374
 Quadrupole moment (field-independent basis, Debye-Ang):
   XX=            -20.8847   YY=            -17.7459   ZZ=            -17.8438
   XY=             -0.0434   XZ=             -0.0582   YZ=              0.0522

 Normal termination of Gaussian 09 at Wed Aug 26 16:25:56 2020.
