 Gaussian 09, Revision D.01,
 Gaussian 09:  ES64L-G09RevD.01 24-Apr-2013

 --------------------
 #p B2PLYPD3/Def2QZVP
 --------------------

 ------------
 cyanomethane
 ------------
 Symbolic Z-matrix:
 Charge =  0 Multiplicity = 1

                         Standard orientation:
 ---------------------------------------------------------------------
 Center     Atomic      Atomic             Coordinates (Angstroms)
 Number     Number       Type             X           Y           Z
 ---------------------------------------------------------------------
      1          6           0       -1.184994    0.011530    0.003141
      2          6           0        0.281498    0.016284    0.001650
      3          7           0        1.436129   -0.013028   -0.003170
      4          1           0       -1.592165   -0.607831   -0.827069
      5          1           0       -1.501540    0.987502   -0.089931
      6          1           0       -1.538222   -0.455360    0.910440
 ---------------------------------------------------------------------

 SCF Done:  E(RB2PLYPD3) =  -132.532635515     A.U. after   12 cycles
 E2(B2PLYPD3) =    -0.1803409889D+00 E(B2PLYPD3) =    -0.13271297650338D+03

 The electronic state is 1-A.
 Alpha  occ. eigenvalues --  -14.84189 -10.66758 -10.66265  -1.04065  -0.89495
 Alpha  occ. eigenvalues --   -0.59575  -0.55592  -0.53048  -0.44750  -0.39238
 Alpha  occ. eigenvalues --   -0.38968
 Alpha virt. eigenvalues --    0.03773   0.07711   0.08617   0.10207   0.11141
 Alpha virt. eigenvalues --    0.11575   0.15347   0.16145   0.16475   0.20028
 Alpha virt. eigenvalues --    0.20156   0.25163   0.32652   0.34250   0.35443

 Mulliken charges:
               1
     1  C   -0.081278
     2  C   -0.002920
     3  N   -0.206711
     4  H    0.092128
     5  H    0.102331
     6  H    0.096450
 Sum of Mulliken charges =   0.00000

 Dipole moment (field-independent basis, Debye):
    X=             -4.1346    Y=              0.0109    Z=              0.0102  Tot=              4.1347
 Quadrupole moment (field-independent basis, Debye-Ang):
   XX=            -20.9908   YY=            -17.6458   ZZ=            -17.8213
   XY=              0.1516   XZ=              0.0410   YZ=             -0.0429

 Normal termination of Gaussian 09 at Wed Aug 26 21:37:52 2020.
