 Gaussian 09, Revision D.01,
 Gaussian 09:  ES64L-G09RevD.01 24-Apr-2013

 --------------------
 #p B2PLYPD3/Def2QZVP
 --------------------

 ------------
 cyanomethane
 ------------
 Symbolic Z-matrix:
 Charge =  0 Multiplicity = 1

                         Standard orientation:
 ---------------------------------------------------------------------
 Center     Atomic      Atomic             Coordinates (Angstroms)
 Number     Number       Type             X           Y           Z
 ---------------------------------------------------------------------
      1          6           0       -1.199078   -0.001760   -0.002664
      2          6           0        0.285768    0.036766    0.029477
      3          7           0        1.418120   -0.024367   -0.029657
      4          1           0       -1.663605   -0.814153   -0.607019
      5          1           0       -1.486782    0.966328   -0.328603
      6          1           0       -1.296597   -0.191640    0.982347
 ---------------------------------------------------------------------

 SCF Done:  E(RB2PLYPD3) =  -132.520182832     A.U. after   12 cycles
 E2(B2PLYPD3) =    -0.1790041984D+00 E(B2PLYPD3) =    -0.13269918703083D+03

 The electronic state is 1-A.
 Alpha  occ. eigenvalues --  -14.83442 -10.66499 -10.65540  -1.04750  -0.89986
 Alpha  occ. eigenvalues --   -0.58432  -0.56366  -0.53250  -0.44438  -0.39616
 Alpha  occ. eigenvalues --   -0.39345
 Alpha virt. eigenvalues --    0.03696   0.07966   0.09807   0.10315   0.11435
 Alpha virt. eigenvalues --    0.11582   0.14655   0.15289   0.17327   0.20062
 Alpha virt. eigenvalues --    0.20105   0.24972   0.32623   0.34617   0.35611

 Mulliken charges:
               1
     1  C   -0.109553
     2  C   -0.009788
     3  N   -0.197783
     4  H    0.098971
     5  H    0.106124
     6  H    0.112029
 Sum of Mulliken charges =   0.00000

 Dipole moment (field-independent basis, Debye):
    X=             -4.0649    Y=              0.0289    Z=              0.0739  Tot=              4.0657
 Quadrupole moment (field-independent basis, Debye-Ang):
   XX=            -21.2760   YY=            -17.4898   ZZ=            -17.6732
   XY=              0.2484   XZ=              0.3661   YZ=             -0.0819

 Normal termination of Gaussian 09 at Wed Aug 26 22:51:11 2020.
