 Gaussian 09, Revision D.01,
 Gaussian 09:  ES64L-G09RevD.01 24-Apr-2013

 --------------------
 #p B2PLYPD3/Def2QZVP
 --------------------

 ------------
 cyanomethane
 ------------
 Symbolic Z-matrix:
 Charge =  0 Multiplicity = 1

                         Standard orientation:
 ---------------------------------------------------------------------
 Center     Atomic      Atomic             Coordinates (Angstroms)
 Number     Number       Type             X           Y           Z
 ---------------------------------------------------------------------
      1          6           0        1.193294    0.019445   -0.001607
      2          6           0       -0.279194   -0.001384   -0.050101
      3          7           0       -1.450617   -0.009117    0.021462
      4          1           0        1.455758    1.063362    0.040724
      5          1           0        1.668624   -0.567935   -0.795856
      6          1           0        1.545336   -0.539977    0.915145
 ---------------------------------------------------------------------

 SCF Done:  E(RB2PLYPD3) =  -132.528378138     A.U. after   12 cycles
 E2(B2PLYPD3) =    -0.1824847440D+00 E(B2PLYPD3) =    -0.13271086288164D+03

 The electronic state is 1-A.
 Alpha  occ. eigenvalues --  -14.84759 -10.67763 -10.66925  -1.03332  -0.88795
 Alpha  occ. eigenvalues --   -0.59567  -0.55225  -0.51914  -0.44824  -0.38812
 Alpha  occ. eigenvalues --   -0.38410
 Alpha virt. eigenvalues --    0.03534   0.07071   0.07877   0.10188   0.10860
 Alpha virt. eigenvalues --    0.11538   0.15000   0.16014   0.16500   0.20035
 Alpha virt. eigenvalues --    0.20245   0.25133   0.32156   0.33456   0.35221

 Mulliken charges:
               1
     1  C   -0.088490
     2  C    0.003335
     3  N   -0.214602
     4  H    0.109076
     5  H    0.096555
     6  H    0.094126
 Sum of Mulliken charges =   0.00000

 Dipole moment (field-independent basis, Debye):
    X=              4.1600    Y=             -0.0225    Z=             -0.0087  Tot=              4.1601
 Quadrupole moment (field-independent basis, Debye-Ang):
   XX=            -21.0580   YY=            -17.5768   ZZ=            -18.1231
   XY=             -0.2912   XZ=              0.0789   YZ=              0.0347

 Normal termination of Gaussian 09 at Wed Aug 26 18:12:41 2020.
