 Gaussian 09, Revision D.01,
 Gaussian 09:  ES64L-G09RevD.01 24-Apr-2013

 --------------------
 #p B2PLYPD3/Def2QZVP
 --------------------

 ------------
 cyanomethane
 ------------
 Symbolic Z-matrix:
 Charge =  0 Multiplicity = 1

                         Standard orientation:
 ---------------------------------------------------------------------
 Center     Atomic      Atomic             Coordinates (Angstroms)
 Number     Number       Type             X           Y           Z
 ---------------------------------------------------------------------
      1          6           0        1.176295    0.007529    0.003628
      2          6           0       -0.287879   -0.032239   -0.009385
      3          7           0       -1.436586    0.014465    0.001547
      4          1           0        1.556419    1.034897   -0.109951
      5          1           0        1.625044   -0.601342   -0.760362
      6          1           0        1.544140   -0.386552    0.894022
 ---------------------------------------------------------------------

 SCF Done:  E(RB2PLYPD3) =  -132.533607602     A.U. after   12 cycles
 E2(B2PLYPD3) =    -0.1799244921D+00 E(B2PLYPD3) =    -0.13271353209361D+03

 The electronic state is 1-A.
 Alpha  occ. eigenvalues --  -14.84182 -10.66608 -10.66264  -1.04374  -0.89408
 Alpha  occ. eigenvalues --   -0.60464  -0.54137  -0.53517  -0.44883  -0.39345
 Alpha  occ. eigenvalues --   -0.39292
 Alpha virt. eigenvalues --    0.03773   0.07855   0.08370   0.10212   0.11441
 Alpha virt. eigenvalues --    0.11503   0.15433   0.16346   0.17003   0.20042
 Alpha virt. eigenvalues --    0.20067   0.25321   0.32813   0.34748   0.35160

 Mulliken charges:
               1
     1  C   -0.068114
     2  C    0.000683
     3  N   -0.203301
     4  H    0.092793
     5  H    0.086988
     6  H    0.090950
 Sum of Mulliken charges =   0.00000

 Dipole moment (field-independent basis, Debye):
    X=              4.1389    Y=             -0.0460    Z=              0.0152  Tot=              4.1392
 Quadrupole moment (field-independent basis, Debye-Ang):
   XX=            -20.7241   YY=            -17.6744   ZZ=            -17.9070
   XY=             -0.0076   XZ=             -0.0010   YZ=             -0.0251

 Normal termination of Gaussian 09 at Wed Aug 26 13:00:52 2020.
