 Gaussian 09, Revision D.01,
 Gaussian 09:  ES64L-G09RevD.01 24-Apr-2013

 --------------------
 #p B2PLYPD3/Def2QZVP
 --------------------

 ------------
 cyanomethane
 ------------
 Symbolic Z-matrix:
 Charge =  0 Multiplicity = 1

                         Standard orientation:
 ---------------------------------------------------------------------
 Center     Atomic      Atomic             Coordinates (Angstroms)
 Number     Number       Type             X           Y           Z
 ---------------------------------------------------------------------
      1          6           0       -1.175608    0.014138   -0.000668
      2          6           0        0.277472    0.024635    0.003187
      3          7           0        1.444377   -0.020211   -0.001605
      4          1           0       -1.498943    1.019442   -0.112571
      5          1           0       -1.604144   -0.454445    0.919305
      6          1           0       -1.618733   -0.656159   -0.810614
 ---------------------------------------------------------------------

 SCF Done:  E(RB2PLYPD3) =  -132.529337966     A.U. after   12 cycles
 E2(B2PLYPD3) =    -0.1820082304D+00 E(B2PLYPD3) =    -0.13271134619680D+03

 The electronic state is 1-A.
 Alpha  occ. eigenvalues --  -14.84671 -10.67636 -10.66751  -1.03663  -0.88965
 Alpha  occ. eigenvalues --   -0.60058  -0.54964  -0.51770  -0.44936  -0.38908
 Alpha  occ. eigenvalues --   -0.38522
 Alpha virt. eigenvalues --    0.03556   0.06757   0.07902   0.10101   0.11061
 Alpha virt. eigenvalues --    0.11730   0.15310   0.16350   0.16616   0.20005
 Alpha virt. eigenvalues --    0.20271   0.25435   0.32402   0.33627   0.35015

 Mulliken charges:
               1
     1  C   -0.081107
     2  C    0.002657
     3  N   -0.210873
     4  H    0.104052
     5  H    0.093317
     6  H    0.091954
 Sum of Mulliken charges =   0.00000

 Dipole moment (field-independent basis, Debye):
    X=             -4.1462    Y=              0.0064    Z=              0.0122  Tot=              4.1462
 Quadrupole moment (field-independent basis, Debye-Ang):
   XX=            -20.9236   YY=            -17.6603   ZZ=            -18.0613
   XY=              0.2703   XZ=             -0.0144   YZ=             -0.0377

 Normal termination of Gaussian 09 at Wed Aug 26 13:03:09 2020.
