 Gaussian 09, Revision D.01,
 Gaussian 09:  ES64L-G09RevD.01 24-Apr-2013

 --------------------
 #p B2PLYPD3/Def2QZVP
 --------------------

 ------------
 cyanomethane
 ------------
 Symbolic Z-matrix:
 Charge =  0 Multiplicity = 1

                         Standard orientation:
 ---------------------------------------------------------------------
 Center     Atomic      Atomic             Coordinates (Angstroms)
 Number     Number       Type             X           Y           Z
 ---------------------------------------------------------------------
      1          6           0        1.169556   -0.004185   -0.009265
      2          6           0       -0.282383    0.018770   -0.009273
      3          7           0       -1.443581   -0.011707    0.009870
      4          1           0        1.657668   -0.330458    0.932339
      5          1           0        1.551771    0.974172   -0.165240
      6          1           0        1.572586   -0.649270   -0.724955
 ---------------------------------------------------------------------

 SCF Done:  E(RB2PLYPD3) =  -132.530895197     A.U. after   12 cycles
 E2(B2PLYPD3) =    -0.1810728534D+00 E(B2PLYPD3) =    -0.13271196805063D+03

 The electronic state is 1-A.
 Alpha  occ. eigenvalues --  -14.84612 -10.66699 -10.66486  -1.03982  -0.89633
 Alpha  occ. eigenvalues --   -0.61277  -0.54766  -0.52568  -0.45040  -0.39142
 Alpha  occ. eigenvalues --   -0.38892
 Alpha virt. eigenvalues --    0.03757   0.07306   0.08081   0.10121   0.11254
 Alpha virt. eigenvalues --    0.11633   0.15541   0.16508   0.17158   0.20037
 Alpha virt. eigenvalues --    0.20237   0.25484   0.32746   0.34536   0.35446

 Mulliken charges:
               1
     1  C   -0.057684
     2  C    0.005273
     3  N   -0.208620
     4  H    0.081702
     5  H    0.088824
     6  H    0.090506
 Sum of Mulliken charges =   0.00000

 Dipole moment (field-independent basis, Debye):
    X=              4.1630    Y=              0.0171    Z=             -0.0169  Tot=              4.1630
 Quadrupole moment (field-independent basis, Debye-Ang):
   XX=            -20.5688   YY=            -17.7937   ZZ=            -17.9640
   XY=             -0.1020   XZ=              0.1204   YZ=              0.0526

 Normal termination of Gaussian 09 at Wed Aug 26 14:26:43 2020.
