 Gaussian 09, Revision D.01,
 Gaussian 09:  ES64L-G09RevD.01 24-Apr-2013

 --------------------
 #p B2PLYPD3/Def2QZVP
 --------------------

 ------------
 cyanomethane
 ------------
 Symbolic Z-matrix:
 Charge =  0 Multiplicity = 1

                         Standard orientation:
 ---------------------------------------------------------------------
 Center     Atomic      Atomic             Coordinates (Angstroms)
 Number     Number       Type             X           Y           Z
 ---------------------------------------------------------------------
      1          6           0        1.179317   -0.049458   -0.004863
      2          6           0       -0.309286    0.054524   -0.020488
      3          7           0       -1.435225   -0.012805    0.010965
      4          1           0        1.519216   -0.685510   -0.729432
      5          1           0        1.555175   -0.300424    0.992072
      6          1           0        1.752000    1.045174   -0.187288
 ---------------------------------------------------------------------

 SCF Done:  E(RB2PLYPD3) =  -132.517693701     A.U. after   12 cycles
 E2(B2PLYPD3) =    -0.1790385868D+00 E(B2PLYPD3) =    -0.13269673228738D+03

 The electronic state is 1-A.
 Alpha  occ. eigenvalues --  -14.83744 -10.68247 -10.65887  -1.05316  -0.87969
 Alpha  occ. eigenvalues --   -0.59589  -0.55179  -0.49986  -0.44895  -0.40270
 Alpha  occ. eigenvalues --   -0.39403
 Alpha virt. eigenvalues --    0.03370   0.06764   0.08736   0.10217   0.11328
 Alpha virt. eigenvalues --    0.12106   0.15189   0.16566   0.17333   0.19814
 Alpha virt. eigenvalues --    0.19963   0.24999   0.30429   0.33814   0.35713

 Mulliken charges:
               1
     1  C   -0.089600
     2  C   -0.000018
     3  N   -0.188717
     4  H    0.106656
     5  H    0.097003
     6  H    0.074676
 Sum of Mulliken charges =   0.00000

 Dipole moment (field-independent basis, Debye):
    X=              4.0650    Y=             -0.0311    Z=              0.0130  Tot=              4.0651
 Quadrupole moment (field-independent basis, Debye-Ang):
   XX=            -20.8115   YY=            -17.9178   ZZ=            -17.7579
   XY=             -0.0071   XZ=              0.1369   YZ=              0.1548

 Normal termination of Gaussian 09 at Wed Aug 26 19:52:26 2020.
