 Gaussian 09, Revision D.01,
 Gaussian 09:  ES64L-G09RevD.01 24-Apr-2013

 --------------------
 #p B2PLYPD3/Def2QZVP
 --------------------

 ------------
 cyanomethane
 ------------
 Symbolic Z-matrix:
 Charge =  0 Multiplicity = 1

                         Standard orientation:
 ---------------------------------------------------------------------
 Center     Atomic      Atomic             Coordinates (Angstroms)
 Number     Number       Type             X           Y           Z
 ---------------------------------------------------------------------
      1          6           0        1.178591    0.010135    0.000135
      2          6           0       -0.279467   -0.009140   -0.002727
      3          7           0       -1.428246    0.003366    0.001760
      4          1           0        1.540607   -0.397641    0.944635
      5          1           0        1.528516    1.002584   -0.135532
      6          1           0        1.533853   -0.634481   -0.805869
 ---------------------------------------------------------------------

 SCF Done:  E(RB2PLYPD3) =  -132.535822478     A.U. after   11 cycles
 E2(B2PLYPD3) =    -0.1798396077D+00 E(B2PLYPD3) =    -0.13271566208613D+03

 The electronic state is 1-A.
 Alpha  occ. eigenvalues --  -14.83956 -10.66866 -10.66000  -1.04299  -0.89430
 Alpha  occ. eigenvalues --   -0.59464  -0.54727  -0.53789  -0.44697  -0.39253
 Alpha  occ. eigenvalues --   -0.39107
 Alpha virt. eigenvalues --    0.03815   0.08105   0.08278   0.10195   0.11420
 Alpha virt. eigenvalues --    0.11573   0.15409   0.16082   0.16434   0.20059
 Alpha virt. eigenvalues --    0.20095   0.25327   0.32843   0.34401   0.35089

 Mulliken charges:
               1
     1  C   -0.086313
     2  C   -0.003916
     3  N   -0.204065
     4  H    0.096864
     5  H    0.100832
     6  H    0.096598
 Sum of Mulliken charges =   0.00000

 Dipole moment (field-independent basis, Debye):
    X=              4.1159    Y=             -0.0091    Z=             -0.0027  Tot=              4.1159
 Quadrupole moment (field-independent basis, Debye-Ang):
   XX=            -21.0703   YY=            -17.6552   ZZ=            -17.7284
   XY=              0.0003   XZ=              0.0159   YZ=             -0.0104

 Normal termination of Gaussian 09 at Thu Aug 27 00:04:36 2020.
