 Gaussian 09, Revision D.01,
 Gaussian 09:  ES64L-G09RevD.01 24-Apr-2013

 --------------------
 #p B2PLYPD3/Def2QZVP
 --------------------

 ------------
 cyanomethane
 ------------
 Symbolic Z-matrix:
 Charge =  0 Multiplicity = 1

                         Standard orientation:
 ---------------------------------------------------------------------
 Center     Atomic      Atomic             Coordinates (Angstroms)
 Number     Number       Type             X           Y           Z
 ---------------------------------------------------------------------
      1          6           0        1.170272    0.015781   -0.001246
      2          6           0       -0.277262   -0.003799   -0.006485
      3          7           0       -1.431280   -0.000988    0.001695
      4          1           0        1.539435    1.006643   -0.092016
      5          1           0        1.583803   -0.626320   -0.822868
      6          1           0        1.537661   -0.445301    0.949402
 ---------------------------------------------------------------------

 SCF Done:  E(RB2PLYPD3) =  -132.533789335     A.U. after   11 cycles
 E2(B2PLYPD3) =    -0.1805852811D+00 E(B2PLYPD3) =    -0.13271437461603D+03

 The electronic state is 1-A.
 Alpha  occ. eigenvalues --  -14.84180 -10.67349 -10.66217  -1.04165  -0.89161
 Alpha  occ. eigenvalues --   -0.59861  -0.54569  -0.52784  -0.44812  -0.39143
 Alpha  occ. eigenvalues --   -0.38853
 Alpha virt. eigenvalues --    0.03697   0.07465   0.07972   0.10153   0.11392
 Alpha virt. eigenvalues --    0.11718   0.15452   0.16158   0.16602   0.20050
 Alpha virt. eigenvalues --    0.20133   0.25519   0.32669   0.33818   0.35052

 Mulliken charges:
               1
     1  C   -0.086009
     2  C   -0.000281
     3  N   -0.205673
     4  H    0.102462
     5  H    0.094322
     6  H    0.095178
 Sum of Mulliken charges =   0.00000

 Dipole moment (field-independent basis, Debye):
    X=              4.1194    Y=             -0.0043    Z=              0.0038  Tot=              4.1194
 Quadrupole moment (field-independent basis, Debye-Ang):
   XX=            -21.0141   YY=            -17.6846   ZZ=            -17.8372
   XY=             -0.0471   XZ=             -0.0071   YZ=             -0.0151

 Normal termination of Gaussian 09 at Wed Aug 26 23:56:10 2020.
