 Gaussian 09, Revision D.01,
 Gaussian 09:  ES64L-G09RevD.01 24-Apr-2013

 --------------------
 #p B2PLYPD3/Def2QZVP
 --------------------

 ------------
 cyanomethane
 ------------
 Symbolic Z-matrix:
 Charge =  0 Multiplicity = 1

                         Standard orientation:
 ---------------------------------------------------------------------
 Center     Atomic      Atomic             Coordinates (Angstroms)
 Number     Number       Type             X           Y           Z
 ---------------------------------------------------------------------
      1          6           0       -1.142665   -0.016963    0.006290
      2          6           0        0.277892    0.020048   -0.050150
      3          7           0        1.420017   -0.002697    0.031450
      4          1           0       -1.610683   -0.525227    0.920419
      5          1           0       -1.480499   -0.535329   -0.890557
      6          1           0       -1.660294    1.060924    0.013153
 ---------------------------------------------------------------------

 SCF Done:  E(RB2PLYPD3) =  -132.523903252     A.U. after   12 cycles
 E2(B2PLYPD3) =    -0.1807310790D+00 E(B2PLYPD3) =    -0.13270463433102D+03

 The electronic state is 1-A.
 Alpha  occ. eigenvalues --  -14.84098 -10.68221 -10.66002  -1.04719  -0.88714
 Alpha  occ. eigenvalues --   -0.60204  -0.53735  -0.51346  -0.44988  -0.39157
 Alpha  occ. eigenvalues --   -0.38851
 Alpha virt. eigenvalues --    0.03351   0.06233   0.07755   0.10008   0.11715
 Alpha virt. eigenvalues --    0.12135   0.15579   0.16093   0.17357   0.19947
 Alpha virt. eigenvalues --    0.20208   0.26174   0.32084   0.33812   0.34232

 Mulliken charges:
               1
     1  C   -0.091418
     2  C    0.004687
     3  N   -0.198753
     4  H    0.097269
     5  H    0.100168
     6  H    0.088047
 Sum of Mulliken charges =   0.00000

 Dipole moment (field-independent basis, Debye):
    X=             -4.0658    Y=             -0.0211    Z=             -0.0534  Tot=              4.0662
 Quadrupole moment (field-independent basis, Debye-Ang):
   XX=            -20.8921   YY=            -17.8849   ZZ=            -17.7816
   XY=             -0.0325   XZ=             -0.2719   YZ=              0.0564

 Normal termination of Gaussian 09 at Wed Aug 26 23:46:02 2020.
