 Gaussian 09, Revision D.01,
 Gaussian 09:  ES64L-G09RevD.01 24-Apr-2013

 --------------------
 #p B2PLYPD3/Def2QZVP
 --------------------

 ------------
 cyanomethane
 ------------
 Symbolic Z-matrix:
 Charge =  0 Multiplicity = 1

                         Standard orientation:
 ---------------------------------------------------------------------
 Center     Atomic      Atomic             Coordinates (Angstroms)
 Number     Number       Type             X           Y           Z
 ---------------------------------------------------------------------
      1          6           0       -1.158612    0.011320    0.014054
      2          6           0        0.289512   -0.035590    0.042481
      3          7           0        1.416184    0.007315   -0.025034
      4          1           0       -1.688785   -0.809523   -0.615826
      5          1           0       -1.442629    0.943556   -0.479287
      6          1           0       -1.567274   -0.039620    0.931138
 ---------------------------------------------------------------------

 SCF Done:  E(RB2PLYPD3) =  -132.526411935     A.U. after   12 cycles
 E2(B2PLYPD3) =    -0.1785122778D+00 E(B2PLYPD3) =    -0.13270492421246D+03

 The electronic state is 1-A.
 Alpha  occ. eigenvalues --  -14.83569 -10.66752 -10.65568  -1.05238  -0.89415
 Alpha  occ. eigenvalues --   -0.60531  -0.55139  -0.51980  -0.44813  -0.39901
 Alpha  occ. eigenvalues --   -0.39423
 Alpha virt. eigenvalues --    0.03612   0.07404   0.09003   0.10253   0.11524
 Alpha virt. eigenvalues --    0.12143   0.15535   0.16412   0.17215   0.19855
 Alpha virt. eigenvalues --    0.20083   0.25687   0.32508   0.34306   0.35253

 Mulliken charges:
               1
     1  C   -0.079244
     2  C   -0.001622
     3  N   -0.192198
     4  H    0.082622
     5  H    0.094050
     6  H    0.096391
 Sum of Mulliken charges =   0.00000

 Dipole moment (field-independent basis, Debye):
    X=             -4.0788    Y=              0.0192    Z=              0.0505  Tot=              4.0791
 Quadrupole moment (field-independent basis, Debye-Ang):
   XX=            -20.7496   YY=            -17.7703   ZZ=            -17.6880
   XY=              0.0579   XZ=              0.1454   YZ=             -0.0681

 Normal termination of Gaussian 09 at Wed Aug 26 22:01:04 2020.
