 Gaussian 09, Revision D.01,
 Gaussian 09:  ES64L-G09RevD.01 24-Apr-2013

 --------------------
 #p B2PLYPD3/Def2QZVP
 --------------------

 ------------
 cyanomethane
 ------------
 Symbolic Z-matrix:
 Charge =  0 Multiplicity = 1

                         Standard orientation:
 ---------------------------------------------------------------------
 Center     Atomic      Atomic             Coordinates (Angstroms)
 Number     Number       Type             X           Y           Z
 ---------------------------------------------------------------------
      1          6           0       -1.177334    0.003980   -0.008047
      2          6           0        0.279123    0.013269    0.007722
      3          7           0        1.440202   -0.008979   -0.003153
      4          1           0       -1.543007    1.026982   -0.019157
      5          1           0       -1.574324   -0.509895    0.901798
      6          1           0       -1.574820   -0.557727   -0.858619
 ---------------------------------------------------------------------

 SCF Done:  E(RB2PLYPD3) =  -132.534043954     A.U. after   11 cycles
 E2(B2PLYPD3) =    -0.1812212889D+00 E(B2PLYPD3) =    -0.13271526524284D+03

 The electronic state is 1-A.
 Alpha  occ. eigenvalues --  -14.84441 -10.67440 -10.66522  -1.03876  -0.89002
 Alpha  occ. eigenvalues --   -0.59884  -0.54249  -0.52922  -0.44864  -0.38985
 Alpha  occ. eigenvalues --   -0.38806
 Alpha virt. eigenvalues --    0.03685   0.07411   0.07811   0.10149   0.11285
 Alpha virt. eigenvalues --    0.11560   0.15378   0.16222   0.16570   0.20066
 Alpha virt. eigenvalues --    0.20160   0.25368   0.32555   0.34118   0.34845

 Mulliken charges:
               1
     1  C   -0.083001
     2  C    0.000859
     3  N   -0.208592
     4  H    0.099690
     5  H    0.093541
     6  H    0.097502
 Sum of Mulliken charges =   0.00000

 Dipole moment (field-independent basis, Debye):
    X=             -4.1383    Y=              0.0021    Z=              0.0065  Tot=              4.1383
 Quadrupole moment (field-independent basis, Debye-Ang):
   XX=            -20.9679   YY=            -17.7230   ZZ=            -17.8923
   XY=              0.1051   XZ=              0.0080   YZ=              0.0226

 Normal termination of Gaussian 09 at Wed Aug 26 10:53:22 2020.
