 Gaussian 09, Revision D.01,
 Gaussian 09:  ES64L-G09RevD.01 24-Apr-2013

 --------------------
 #p B2PLYPD3/Def2QZVP
 --------------------

 ------------
 cyanomethane
 ------------
 Symbolic Z-matrix:
 Charge =  0 Multiplicity = 1

                         Standard orientation:
 ---------------------------------------------------------------------
 Center     Atomic      Atomic             Coordinates (Angstroms)
 Number     Number       Type             X           Y           Z
 ---------------------------------------------------------------------
      1          6           0       -1.174446    0.019329    0.009627
      2          6           0        0.272784   -0.038865   -0.012158
      3          7           0        1.448832    0.020461    0.001949
      4          1           0       -1.521219   -0.443461    0.904518
      5          1           0       -1.597683   -0.587126   -0.819244
      6          1           0       -1.612950    1.004580   -0.083729
 ---------------------------------------------------------------------

 SCF Done:  E(RB2PLYPD3) =  -132.530408881     A.U. after   12 cycles
 E2(B2PLYPD3) =    -0.1826285559D+00 E(B2PLYPD3) =    -0.13271303743649D+03

 The electronic state is 1-A.
 Alpha  occ. eigenvalues --  -14.84979 -10.67071 -10.66981  -1.03320  -0.89445
 Alpha  occ. eigenvalues --   -0.60742  -0.54368  -0.53030  -0.45023  -0.38656
 Alpha  occ. eigenvalues --   -0.38445
 Alpha virt. eigenvalues --    0.03689   0.06950   0.07595   0.10035   0.11236
 Alpha virt. eigenvalues --    0.11399   0.15474   0.15866   0.17160   0.20184
 Alpha virt. eigenvalues --    0.20242   0.25658   0.32496   0.34287   0.35075

 Mulliken charges:
               1
     1  C   -0.070171
     2  C    0.005888
     3  N   -0.215535
     4  H    0.095286
     5  H    0.087791
     6  H    0.096742
 Sum of Mulliken charges =   0.00000

 Dipole moment (field-independent basis, Debye):
    X=             -4.1681    Y=             -0.0419    Z=              0.0038  Tot=              4.1683
 Quadrupole moment (field-independent basis, Debye-Ang):
   XX=            -20.7919   YY=            -17.8370   ZZ=            -17.9403
   XY=             -0.0994   XZ=              0.0389   YZ=             -0.0524

 Normal termination of Gaussian 09 at Wed Aug 26 10:20:20 2020.
