 Gaussian 09, Revision D.01,
 Gaussian 09:  ES64L-G09RevD.01 24-Apr-2013

 --------------------
 #p B2PLYPD3/Def2QZVP
 --------------------

 ------------
 cyanomethane
 ------------
 Symbolic Z-matrix:
 Charge =  0 Multiplicity = 1

                         Standard orientation:
 ---------------------------------------------------------------------
 Center     Atomic      Atomic             Coordinates (Angstroms)
 Number     Number       Type             X           Y           Z
 ---------------------------------------------------------------------
      1          6           0       -1.201889   -0.024544    0.003939
      2          6           0        0.303046    0.062073    0.005535
      3          7           0        1.434415   -0.032330   -0.002218
      4          1           0       -1.564361   -0.010186    1.032978
      5          1           0       -1.560508   -0.960838   -0.544708
      6          1           0       -1.522975    0.972157   -0.529583
 ---------------------------------------------------------------------

 SCF Done:  E(RB2PLYPD3) =  -132.525748546     A.U. after   12 cycles
 E2(B2PLYPD3) =    -0.1796935304D+00 E(B2PLYPD3) =    -0.13270544207627D+03

 The electronic state is 1-A.
 Alpha  occ. eigenvalues --  -14.83646 -10.68993 -10.65800  -1.04767  -0.87319
 Alpha  occ. eigenvalues --   -0.57929  -0.53261  -0.52211  -0.44586  -0.39689
 Alpha  occ. eigenvalues --   -0.39396
 Alpha virt. eigenvalues --    0.03314   0.07634   0.08264   0.10167   0.11450
 Alpha virt. eigenvalues --    0.11578   0.14944   0.15457   0.16947   0.19899
 Alpha virt. eigenvalues --    0.20015   0.24805   0.31693   0.33218   0.34265

 Mulliken charges:
               1
     1  C   -0.116487
     2  C   -0.003999
     3  N   -0.193813
     4  H    0.106276
     5  H    0.108678
     6  H    0.099346
 Sum of Mulliken charges =   0.00000

 Dipole moment (field-independent basis, Debye):
    X=             -4.0693    Y=              0.0439    Z=              0.0308  Tot=              4.0696
 Quadrupole moment (field-independent basis, Debye-Ang):
   XX=            -21.3431   YY=            -17.5943   ZZ=            -17.8225
   XY=              0.2339   XZ=             -0.0748   YZ=              0.0424

 Normal termination of Gaussian 09 at Wed Aug 26 23:52:51 2020.
