 Gaussian 09, Revision D.01,
 Gaussian 09:  ES64L-G09RevD.01 24-Apr-2013

 --------------------
 #p B2PLYPD3/Def2QZVP
 --------------------

 ------------
 cyanomethane
 ------------
 Symbolic Z-matrix:
 Charge =  0 Multiplicity = 1

                         Standard orientation:
 ---------------------------------------------------------------------
 Center     Atomic      Atomic             Coordinates (Angstroms)
 Number     Number       Type             X           Y           Z
 ---------------------------------------------------------------------
      1          6           0        1.174214    0.004221   -0.006632
      2          6           0       -0.283067   -0.008465    0.002305
      3          7           0       -1.439735    0.004002    0.000030
      4          1           0        1.583678   -0.195650    1.010135
      5          1           0        1.575039    0.966865   -0.323885
      6          1           0        1.572541   -0.773770   -0.660493
 ---------------------------------------------------------------------

 SCF Done:  E(RB2PLYPD3) =  -132.534726249     A.U. after   11 cycles
 E2(B2PLYPD3) =    -0.1808242659D+00 E(B2PLYPD3) =    -0.13271555051439D+03

 The electronic state is 1-A.
 Alpha  occ. eigenvalues --  -14.84370 -10.67385 -10.66454  -1.04094  -0.88940
 Alpha  occ. eigenvalues --   -0.60155  -0.53799  -0.53027  -0.44905  -0.39110
 Alpha  occ. eigenvalues --   -0.38986
 Alpha virt. eigenvalues --    0.03703   0.07551   0.07742   0.10163   0.11419
 Alpha virt. eigenvalues --    0.11552   0.15426   0.16406   0.16703   0.20072
 Alpha virt. eigenvalues --    0.20106   0.25363   0.32609   0.34289   0.34826

 Mulliken charges:
               1
     1  C   -0.078107
     2  C    0.001189
     3  N   -0.206001
     4  H    0.091778
     5  H    0.096011
     6  H    0.095130
 Sum of Mulliken charges =   0.00000

 Dipole moment (field-independent basis, Debye):
    X=              4.1376    Y=             -0.0072    Z=              0.0017  Tot=              4.1376
 Quadrupole moment (field-independent basis, Debye-Ang):
   XX=            -20.8587   YY=            -17.7904   ZZ=            -17.8596
   XY=              0.0174   XZ=              0.0167   YZ=              0.0079

 Normal termination of Gaussian 09 at Thu Aug 27 00:13:13 2020.
