 Gaussian 09, Revision D.01,
 Gaussian 09:  ES64L-G09RevD.01 24-Apr-2013

 --------------------
 #p B2PLYPD3/Def2QZVP
 --------------------

 ------------
 cyanomethane
 ------------
 Symbolic Z-matrix:
 Charge =  0 Multiplicity = 1

                         Standard orientation:
 ---------------------------------------------------------------------
 Center     Atomic      Atomic             Coordinates (Angstroms)
 Number     Number       Type             X           Y           Z
 ---------------------------------------------------------------------
      1          6           0       -1.183453   -0.005669    0.005125
      2          6           0        0.281759    0.020654    0.008597
      3          7           0        1.432944   -0.012241   -0.005996
      4          1           0       -1.566741   -0.653494   -0.815901
      5          1           0       -1.516038    1.022754   -0.175430
      6          1           0       -1.537665   -0.373483    0.950965
 ---------------------------------------------------------------------

 SCF Done:  E(RB2PLYPD3) =  -132.534842783     A.U. after   12 cycles
 E2(B2PLYPD3) =    -0.1802974145D+00 E(B2PLYPD3) =    -0.13271514019795D+03

 The electronic state is 1-A.
 Alpha  occ. eigenvalues --  -14.84066 -10.67379 -10.66141  -1.04176  -0.89004
 Alpha  occ. eigenvalues --   -0.59180  -0.54438  -0.53387  -0.44710  -0.39179
 Alpha  occ. eigenvalues --   -0.39044
 Alpha virt. eigenvalues --    0.03704   0.07766   0.08257   0.10182   0.11368
 Alpha virt. eigenvalues --    0.11536   0.15316   0.15899   0.16540   0.20056
 Alpha virt. eigenvalues --    0.20101   0.25217   0.32640   0.34179   0.34822

 Mulliken charges:
               1
     1  C   -0.092369
     2  C   -0.002863
     3  N   -0.204836
     4  H    0.098200
     5  H    0.099613
     6  H    0.102254
 Sum of Mulliken charges =   0.00000

 Dipole moment (field-independent basis, Debye):
    X=             -4.1152    Y=              0.0199    Z=              0.0082  Tot=              4.1153
 Quadrupole moment (field-independent basis, Debye-Ang):
   XX=            -21.1248   YY=            -17.7251   ZZ=            -17.7166
   XY=              0.0988   XZ=              0.0533   YZ=             -0.0341

 Normal termination of Gaussian 09 at Wed Aug 26 23:55:56 2020.
