 Gaussian 09, Revision D.01,
 Gaussian 09:  ES64L-G09RevD.01 24-Apr-2013

 --------------------
 #p B2PLYPD3/Def2QZVP
 --------------------

 ------------
 cyanomethane
 ------------
 Symbolic Z-matrix:
 Charge =  0 Multiplicity = 1

                         Standard orientation:
 ---------------------------------------------------------------------
 Center     Atomic      Atomic             Coordinates (Angstroms)
 Number     Number       Type             X           Y           Z
 ---------------------------------------------------------------------
      1          6           0        1.185685    0.006680    0.005458
      2          6           0       -0.283462   -0.021420   -0.003110
      3          7           0       -1.436906    0.009437   -0.001073
      4          1           0        1.537373    1.040172   -0.145538
      5          1           0        1.580484   -0.634389   -0.813272
      6          1           0        1.527144   -0.383408    0.952235
 ---------------------------------------------------------------------

 SCF Done:  E(RB2PLYPD3) =  -132.534929510     A.U. after   12 cycles
 E2(B2PLYPD3) =    -0.1805122244D+00 E(B2PLYPD3) =    -0.13271544173408D+03

 The electronic state is 1-A.
 Alpha  occ. eigenvalues --  -14.84159 -10.67522 -10.66255  -1.04096  -0.88845
 Alpha  occ. eigenvalues --   -0.59180  -0.54188  -0.53369  -0.44737  -0.39134
 Alpha  occ. eigenvalues --   -0.39049
 Alpha virt. eigenvalues --    0.03691   0.07748   0.08107   0.10198   0.11368
 Alpha virt. eigenvalues --    0.11471   0.15261   0.16086   0.16412   0.20069
 Alpha virt. eigenvalues --    0.20086   0.25143   0.32502   0.34298   0.34686

 Mulliken charges:
               1
     1  C   -0.091505
     2  C   -0.002271
     3  N   -0.205497
     4  H    0.101095
     5  H    0.096873
     6  H    0.101305
 Sum of Mulliken charges =   0.00000

 Dipole moment (field-independent basis, Debye):
    X=              4.1235    Y=             -0.0166    Z=              0.0061  Tot=              4.1235
 Quadrupole moment (field-independent basis, Debye-Ang):
   XX=            -21.0968   YY=            -17.7231   ZZ=            -17.7702
   XY=              0.0230   XZ=             -0.0348   YZ=             -0.0296

 Normal termination of Gaussian 09 at Thu Aug 27 00:01:54 2020.
