 Gaussian 09, Revision D.01,
 Gaussian 09:  ES64L-G09RevD.01 24-Apr-2013

 --------------------
 #p B2PLYPD3/Def2QZVP
 --------------------

 ------------
 cyanomethane
 ------------
 Symbolic Z-matrix:
 Charge =  0 Multiplicity = 1

                         Standard orientation:
 ---------------------------------------------------------------------
 Center     Atomic      Atomic             Coordinates (Angstroms)
 Number     Number       Type             X           Y           Z
 ---------------------------------------------------------------------
      1          6           0        1.173161   -0.001866    0.000156
      2          6           0       -0.276378    0.016356   -0.004313
      3          7           0       -1.439372   -0.007277    0.002964
      4          1           0        1.577549    0.974625   -0.231725
      5          1           0        1.547247   -0.708417   -0.732905
      6          1           0        1.570102   -0.302203    0.968824
 ---------------------------------------------------------------------

 SCF Done:  E(RB2PLYPD3) =  -132.534767618     A.U. after   11 cycles
 E2(B2PLYPD3) =    -0.1811992850D+00 E(B2PLYPD3) =    -0.13271596690253D+03

 The electronic state is 1-A.
 Alpha  occ. eigenvalues --  -14.84503 -10.66931 -10.66561  -1.03831  -0.89416
 Alpha  occ. eigenvalues --   -0.60354  -0.54003  -0.53695  -0.44902  -0.38891
 Alpha  occ. eigenvalues --   -0.38852
 Alpha virt. eigenvalues --    0.03768   0.07603   0.07756   0.10147   0.11362
 Alpha virt. eigenvalues --    0.11460   0.15483   0.16385   0.16534   0.20108
 Alpha virt. eigenvalues --    0.20150   0.25501   0.32742   0.34653   0.34800

 Mulliken charges:
               1
     1  C   -0.074236
     2  C    0.001471
     3  N   -0.209871
     4  H    0.094106
     5  H    0.094771
     6  H    0.093759
 Sum of Mulliken charges =   0.00000

 Dipole moment (field-independent basis, Debye):
    X=              4.1484    Y=              0.0055    Z=             -0.0039  Tot=              4.1484
 Quadrupole moment (field-independent basis, Debye-Ang):
   XX=            -20.8665   YY=            -17.7929   ZZ=            -17.8261
   XY=             -0.0311   XZ=              0.0295   YZ=              0.0030

 Normal termination of Gaussian 09 at Thu Aug 27 00:06:23 2020.
