 Gaussian 09, Revision D.01,
 Gaussian 09:  ES64L-G09RevD.01 24-Apr-2013

 --------------------
 #p B2PLYPD3/Def2QZVP
 --------------------

 ------------
 cyanomethane
 ------------
 Symbolic Z-matrix:
 Charge =  0 Multiplicity = 1

                         Standard orientation:
 ---------------------------------------------------------------------
 Center     Atomic      Atomic             Coordinates (Angstroms)
 Number     Number       Type             X           Y           Z
 ---------------------------------------------------------------------
      1          6           0        1.182335   -0.011151   -0.004704
      2          6           0       -0.280121   -0.006715   -0.016862
      3          7           0       -1.438559    0.007713    0.012668
      4          1           0        1.490807   -0.621449   -0.774416
      5          1           0        1.580001   -0.356223    0.953961
      6          1           0        1.585821    1.030874   -0.138830
 ---------------------------------------------------------------------

 SCF Done:  E(RB2PLYPD3) =  -132.531643563     A.U. after   12 cycles
 E2(B2PLYPD3) =    -0.1808071164D+00 E(B2PLYPD3) =    -0.13271245067960D+03

 The electronic state is 1-A.
 Alpha  occ. eigenvalues --  -14.84336 -10.66982 -10.66413  -1.03943  -0.89377
 Alpha  occ. eigenvalues --   -0.59729  -0.55312  -0.52810  -0.44806  -0.39122
 Alpha  occ. eigenvalues --   -0.38865
 Alpha virt. eigenvalues --    0.03713   0.07410   0.08460   0.10180   0.11153
 Alpha virt. eigenvalues --    0.11571   0.15362   0.16098   0.16587   0.20041
 Alpha virt. eigenvalues --    0.20174   0.25250   0.32536   0.34098   0.35290

 Mulliken charges:
               1
     1  C   -0.082030
     2  C   -0.001045
     3  N   -0.208145
     4  H    0.102852
     5  H    0.095493
     6  H    0.092876
 Sum of Mulliken charges =   0.00000

 Dipole moment (field-independent basis, Debye):
    X=              4.1369    Y=             -0.0166    Z=             -0.0138  Tot=              4.1370
 Quadrupole moment (field-independent basis, Debye-Ang):
   XX=            -20.9735   YY=            -17.7762   ZZ=            -17.7587
   XY=              0.0860   XZ=              0.1389   YZ=              0.0716

 Normal termination of Gaussian 09 at Wed Aug 26 09:41:21 2020.
