 Gaussian 09, Revision D.01,
 Gaussian 09:  ES64L-G09RevD.01 24-Apr-2013

 --------------------
 #p B2PLYPD3/Def2QZVP
 --------------------

 ------------
 cyanomethane
 ------------
 Symbolic Z-matrix:
 Charge =  0 Multiplicity = 1

                         Standard orientation:
 ---------------------------------------------------------------------
 Center     Atomic      Atomic             Coordinates (Angstroms)
 Number     Number       Type             X           Y           Z
 ---------------------------------------------------------------------
      1          6           0        1.180373    0.000662    0.004868
      2          6           0       -0.274765    0.016564    0.004548
      3          7           0       -1.432409   -0.010878   -0.004634
      4          1           0        1.516358    0.892886   -0.482995
      5          1           0        1.568647   -0.871672   -0.549848
      6          1           0        1.508213   -0.048426    1.008789
 ---------------------------------------------------------------------

 SCF Done:  E(RB2PLYPD3) =  -132.534322714     A.U. after   12 cycles
 E2(B2PLYPD3) =    -0.1806012850D+00 E(B2PLYPD3) =    -0.13271492399939D+03

 The electronic state is 1-A.
 Alpha  occ. eigenvalues --  -14.84209 -10.66764 -10.66255  -1.03943  -0.89628
 Alpha  occ. eigenvalues --   -0.59528  -0.55120  -0.53733  -0.44727  -0.39013
 Alpha  occ. eigenvalues --   -0.38886
 Alpha virt. eigenvalues --    0.03793   0.07775   0.08372   0.10174   0.11280
 Alpha virt. eigenvalues --    0.11483   0.15408   0.15940   0.16414   0.20098
 Alpha virt. eigenvalues --    0.20147   0.25372   0.32785   0.34441   0.35079

 Mulliken charges:
               1
     1  C   -0.084994
     2  C   -0.002482
     3  N   -0.208845
     4  H    0.099412
     5  H    0.095924
     6  H    0.100984
 Sum of Mulliken charges =   0.00000

 Dipole moment (field-independent basis, Debye):
    X=              4.1289    Y=              0.0174    Z=              0.0074  Tot=              4.1289
 Quadrupole moment (field-independent basis, Debye-Ang):
   XX=            -21.0816   YY=            -17.7359   ZZ=            -17.6875
   XY=             -0.0937   XZ=             -0.0560   YZ=             -0.0326

 Normal termination of Gaussian 09 at Wed Aug 26 09:33:05 2020.
