 Gaussian 09, Revision D.01,
 Gaussian 09:  ES64L-G09RevD.01 24-Apr-2013

 --------------------
 #p B2PLYPD3/Def2QZVP
 --------------------

 ------------
 cyanomethane
 ------------
 Symbolic Z-matrix:
 Charge =  0 Multiplicity = 1

                         Standard orientation:
 ---------------------------------------------------------------------
 Center     Atomic      Atomic             Coordinates (Angstroms)
 Number     Number       Type             X           Y           Z
 ---------------------------------------------------------------------
      1          6           0       -1.150682   -0.015968    0.025958
      2          6           0        0.298458    0.067061    0.012543
      3          7           0        1.416981   -0.029050   -0.011414
      4          1           0       -1.563104   -0.368968    0.915924
      5          1           0       -1.570049   -0.727860   -0.809356
      6          1           0       -1.672364    0.993624   -0.257674
 ---------------------------------------------------------------------

 SCF Done:  E(RB2PLYPD3) =  -132.523537371     A.U. after   12 cycles
 E2(B2PLYPD3) =    -0.1786868003D+00 E(B2PLYPD3) =    -0.13270222417115D+03

 The electronic state is 1-A.
 Alpha  occ. eigenvalues --  -14.83561 -10.68014 -10.65556  -1.05621  -0.88252
 Alpha  occ. eigenvalues --   -0.60467  -0.53718  -0.50952  -0.44946  -0.40097
 Alpha  occ. eigenvalues --   -0.39440
 Alpha virt. eigenvalues --    0.03408   0.07018   0.08211   0.10100   0.11745
 Alpha virt. eigenvalues --    0.12260   0.15608   0.16621   0.17490   0.19803
 Alpha virt. eigenvalues --    0.19990   0.25780   0.32258   0.33026   0.35322

 Mulliken charges:
               1
     1  C   -0.085828
     2  C    0.001368
     3  N   -0.185250
     4  H    0.100625
     5  H    0.085358
     6  H    0.083728
 Sum of Mulliken charges =   0.00000

 Dipole moment (field-independent basis, Debye):
    X=             -4.0392    Y=              0.0233    Z=              0.0224  Tot=              4.0394
 Quadrupole moment (field-independent basis, Debye-Ang):
   XX=            -20.7322   YY=            -17.8415   ZZ=            -17.7807
   XY=              0.1718   XZ=              0.1106   YZ=             -0.1003

 Normal termination of Gaussian 09 at Wed Aug 26 19:54:22 2020.
