 Gaussian 09, Revision D.01,
 Gaussian 09:  ES64L-G09RevD.01 24-Apr-2013

 --------------------
 #p B2PLYPD3/Def2QZVP
 --------------------

 ------------
 cyanomethane
 ------------
 Symbolic Z-matrix:
 Charge =  0 Multiplicity = 1

                         Standard orientation:
 ---------------------------------------------------------------------
 Center     Atomic      Atomic             Coordinates (Angstroms)
 Number     Number       Type             X           Y           Z
 ---------------------------------------------------------------------
      1          6           0        1.164424    0.008860    0.003928
      2          6           0       -0.277056   -0.035084   -0.006373
      3          7           0       -1.427658    0.016662    0.000198
      4          1           0        1.550439    1.073936   -0.117856
      5          1           0        1.593002   -0.628324   -0.797110
      6          1           0        1.525955   -0.404898    0.928250
 ---------------------------------------------------------------------

 SCF Done:  E(RB2PLYPD3) =  -132.533116875     A.U. after   12 cycles
 E2(B2PLYPD3) =    -0.1805287477D+00 E(B2PLYPD3) =    -0.13271364562266D+03

 The electronic state is 1-A.
 Alpha  occ. eigenvalues --  -14.84135 -10.67482 -10.66135  -1.04288  -0.89080
 Alpha  occ. eigenvalues --   -0.59885  -0.53747  -0.53180  -0.44834  -0.39051
 Alpha  occ. eigenvalues --   -0.38989
 Alpha virt. eigenvalues --    0.03598   0.07336   0.07948   0.10135   0.11601
 Alpha virt. eigenvalues --    0.11650   0.15480   0.16013   0.16811   0.20062
 Alpha virt. eigenvalues --    0.20093   0.25721   0.32752   0.34071   0.34494

 Mulliken charges:
               1
     1  C   -0.087449
     2  C    0.000639
     3  N   -0.204295
     4  H    0.099070
     5  H    0.094063
     6  H    0.097971
 Sum of Mulliken charges =   0.00000

 Dipole moment (field-independent basis, Debye):
    X=              4.1066    Y=             -0.0490    Z=              0.0152  Tot=              4.1070
 Quadrupole moment (field-independent basis, Debye-Ang):
   XX=            -21.0023   YY=            -17.6439   ZZ=            -17.8798
   XY=              0.0178   XZ=             -0.0103   YZ=             -0.0243

 Normal termination of Gaussian 09 at Wed Aug 26 11:44:27 2020.
