 Gaussian 09, Revision D.01,
 Gaussian 09:  ES64L-G09RevD.01 24-Apr-2013

 --------------------
 #p B2PLYPD3/Def2QZVP
 --------------------

 ------------
 cyanomethane
 ------------
 Symbolic Z-matrix:
 Charge =  0 Multiplicity = 1

                         Standard orientation:
 ---------------------------------------------------------------------
 Center     Atomic      Atomic             Coordinates (Angstroms)
 Number     Number       Type             X           Y           Z
 ---------------------------------------------------------------------
      1          6           0        1.176219   -0.005064   -0.009484
      2          6           0       -0.287802   -0.013071    0.019266
      3          7           0       -1.435743    0.016265   -0.010448
      4          1           0        1.686858    0.971557   -0.401985
      5          1           0        1.490828   -0.853432   -0.608344
      6          1           0        1.542017   -0.123166    1.024777
 ---------------------------------------------------------------------

 SCF Done:  E(RB2PLYPD3) =  -132.529881771     A.U. after   12 cycles
 E2(B2PLYPD3) =    -0.1805048727D+00 E(B2PLYPD3) =    -0.13271038664330D+03

 The electronic state is 1-A.
 Alpha  occ. eigenvalues --  -14.84123 -10.68039 -10.66218  -1.04395  -0.88473
 Alpha  occ. eigenvalues --   -0.59380  -0.54108  -0.52007  -0.44835  -0.39283
 Alpha  occ. eigenvalues --   -0.39077
 Alpha virt. eigenvalues --    0.03474   0.07037   0.08218   0.10182   0.11462
 Alpha virt. eigenvalues --    0.11708   0.15311   0.15809   0.17208   0.20014
 Alpha virt. eigenvalues --    0.20140   0.25292   0.32212   0.33764   0.34630

 Mulliken charges:
               1
     1  C   -0.092858
     2  C    0.000102
     3  N   -0.201520
     4  H    0.094577
     5  H    0.103026
     6  H    0.096674
 Sum of Mulliken charges =   0.00000

 Dipole moment (field-independent basis, Debye):
    X=              4.1107    Y=             -0.0451    Z=              0.0390  Tot=              4.1111
 Quadrupole moment (field-independent basis, Debye-Ang):
   XX=            -20.9793   YY=            -17.7535   ZZ=            -17.8598
   XY=              0.2013   XZ=             -0.0226   YZ=              0.0711

 Normal termination of Gaussian 09 at Wed Aug 26 11:19:54 2020.
