 Gaussian 09, Revision D.01,
 Gaussian 09:  ES64L-G09RevD.01 24-Apr-2013

 --------------------
 #p B2PLYPD3/Def2QZVP
 --------------------

 ------------
 cyanomethane
 ------------
 Symbolic Z-matrix:
 Charge =  0 Multiplicity = 1

                         Standard orientation:
 ---------------------------------------------------------------------
 Center     Atomic      Atomic             Coordinates (Angstroms)
 Number     Number       Type             X           Y           Z
 ---------------------------------------------------------------------
      1          6           0        1.161859   -0.002307   -0.002903
      2          6           0       -0.278004   -0.037562   -0.006985
      3          7           0       -1.427646    0.022318    0.007497
      4          1           0        1.589713    1.041926   -0.082909
      5          1           0        1.505199   -0.554534   -0.798633
      6          1           0        1.595478   -0.404404    0.888393
 ---------------------------------------------------------------------

 SCF Done:  E(RB2PLYPD3) =  -132.530985383     A.U. after   12 cycles
 E2(B2PLYPD3) =    -0.1801459308D+00 E(B2PLYPD3) =    -0.13271113131422D+03

 The electronic state is 1-A.
 Alpha  occ. eigenvalues --  -14.84181 -10.66445 -10.66159  -1.04360  -0.89820
 Alpha  occ. eigenvalues --   -0.60726  -0.55016  -0.52904  -0.44901  -0.39246
 Alpha  occ. eigenvalues --   -0.39029
 Alpha virt. eigenvalues --    0.03685   0.07422   0.08523   0.10128   0.11390
 Alpha virt. eigenvalues --    0.11735   0.15627   0.16191   0.17061   0.20012
 Alpha virt. eigenvalues --    0.20164   0.25769   0.33034   0.34231   0.35373

 Mulliken charges:
               1
     1  C   -0.069809
     2  C    0.001035
     3  N   -0.204385
     4  H    0.088683
     5  H    0.095080
     6  H    0.089395
 Sum of Mulliken charges =   0.00000

 Dipole moment (field-independent basis, Debye):
    X=              4.1226    Y=             -0.0537    Z=             -0.0108  Tot=              4.1230
 Quadrupole moment (field-independent basis, Debye-Ang):
   XX=            -20.7614   YY=            -17.7405   ZZ=            -17.7962
   XY=              0.1215   XZ=              0.1030   YZ=              0.0474

 Normal termination of Gaussian 09 at Wed Aug 26 14:41:36 2020.
