 Gaussian 09, Revision D.01,
 Gaussian 09:  ES64L-G09RevD.01 24-Apr-2013

 --------------------
 #p B2PLYPD3/Def2QZVP
 --------------------

 ------------
 cyanomethane
 ------------
 Symbolic Z-matrix:
 Charge =  0 Multiplicity = 1

                         Standard orientation:
 ---------------------------------------------------------------------
 Center     Atomic      Atomic             Coordinates (Angstroms)
 Number     Number       Type             X           Y           Z
 ---------------------------------------------------------------------
      1          6           0        1.180609   -0.021277   -0.008264
      2          6           0       -0.290556   -0.048958   -0.003284
      3          7           0       -1.443112    0.042498    0.005204
      4          1           0        1.761220    0.988071   -0.307498
      5          1           0        1.412123   -0.720681   -0.604784
      6          1           0        1.588120   -0.143465    0.945135
 ---------------------------------------------------------------------

 SCF Done:  E(RB2PLYPD3) =  -132.504670637     A.U. after   12 cycles
 E2(B2PLYPD3) =    -0.1808690454D+00 E(B2PLYPD3) =    -0.13268553968205D+03

 The electronic state is 1-A.
 Alpha  occ. eigenvalues --  -14.84507 -10.66570 -10.66318  -1.04219  -0.90102
 Alpha  occ. eigenvalues --   -0.60477  -0.57245  -0.50767  -0.44998  -0.39520
 Alpha  occ. eigenvalues --   -0.38871
 Alpha virt. eigenvalues --    0.03121   0.06900   0.09305   0.10086   0.10876
 Alpha virt. eigenvalues --    0.11805   0.15324   0.16079   0.17617   0.19889
 Alpha virt. eigenvalues --    0.20467   0.25239   0.31567   0.33735   0.36228

 Mulliken charges:
               1
     1  C   -0.082203
     2  C    0.003744
     3  N   -0.204890
     4  H    0.082154
     5  H    0.111278
     6  H    0.089918
 Sum of Mulliken charges =   0.00000

 Dipole moment (field-independent basis, Debye):
    X=              4.1341    Y=             -0.1000    Z=              0.0427  Tot=              4.1356
 Quadrupole moment (field-independent basis, Debye-Ang):
   XX=            -20.5672   YY=            -17.8259   ZZ=            -17.8949
   XY=              0.4017   XZ=              0.1911   YZ=              0.1930

 Normal termination of Gaussian 09 at Wed Aug 26 21:24:17 2020.
