 Gaussian 09, Revision D.01,
 Gaussian 09:  ES64L-G09RevD.01 24-Apr-2013

 --------------------
 #p B2PLYPD3/Def2QZVP
 --------------------

 ------------
 cyanomethane
 ------------
 Symbolic Z-matrix:
 Charge =  0 Multiplicity = 1

                         Standard orientation:
 ---------------------------------------------------------------------
 Center     Atomic      Atomic             Coordinates (Angstroms)
 Number     Number       Type             X           Y           Z
 ---------------------------------------------------------------------
      1          6           0        1.163255   -0.013559   -0.023220
      2          6           0       -0.265992   -0.014353   -0.057699
      3          7           0       -1.435482    0.012528    0.042679
      4          1           0        1.426322   -0.683325   -0.745755
      5          1           0        1.662840   -0.345234    1.068910
      6          1           0        1.575631    1.108332   -0.136394
 ---------------------------------------------------------------------

 SCF Done:  E(RB2PLYPD3) =  -132.505509839     A.U. after   13 cycles
 E2(B2PLYPD3) =    -0.1835555181D+00 E(B2PLYPD3) =    -0.13268906535701D+03

 The electronic state is 1-A.
 Alpha  occ. eigenvalues --  -14.84819 -10.68701 -10.66758  -1.03505  -0.89002
 Alpha  occ. eigenvalues --   -0.59186  -0.55589  -0.50149  -0.44956  -0.38646
 Alpha  occ. eigenvalues --   -0.37864
 Alpha virt. eigenvalues --    0.02731   0.05163   0.08180   0.09968   0.10913
 Alpha virt. eigenvalues --    0.12027   0.15251   0.15821   0.16665   0.19979
 Alpha virt. eigenvalues --    0.20365   0.25790   0.31183   0.31830   0.34616

 Mulliken charges:
               1
     1  C   -0.106135
     2  C    0.006668
     3  N   -0.212544
     4  H    0.117551
     5  H    0.092625
     6  H    0.101835
 Sum of Mulliken charges =   0.00000

 Dipole moment (field-independent basis, Debye):
    X=              4.0788    Y=             -0.0095    Z=             -0.0575  Tot=              4.0792
 Quadrupole moment (field-independent basis, Debye-Ang):
   XX=            -21.2509   YY=            -17.7576   ZZ=            -17.9390
   XY=              0.1412   XZ=              0.4131   YZ=              0.2000

 Normal termination of Gaussian 09 at Wed Aug 26 19:04:46 2020.
