 Gaussian 09, Revision D.01,
 Gaussian 09:  ES64L-G09RevD.01 24-Apr-2013

 --------------------
 #p B2PLYPD3/Def2QZVP
 --------------------

 ------------
 cyanomethane
 ------------
 Symbolic Z-matrix:
 Charge =  0 Multiplicity = 1

                         Standard orientation:
 ---------------------------------------------------------------------
 Center     Atomic      Atomic             Coordinates (Angstroms)
 Number     Number       Type             X           Y           Z
 ---------------------------------------------------------------------
      1          6           0        1.189779   -0.010833    0.001829
      2          6           0       -0.284669    0.022105   -0.004677
      3          7           0       -1.434502   -0.006819    0.003082
      4          1           0        1.491573   -0.787116   -0.657662
      5          1           0        1.538734   -0.192050    0.993071
      6          1           0        1.580542    0.959270   -0.339894
 ---------------------------------------------------------------------

 SCF Done:  E(RB2PLYPD3) =  -132.535150693     A.U. after   11 cycles
 E2(B2PLYPD3) =    -0.1799130545D+00 E(B2PLYPD3) =    -0.13271506374735D+03

 The electronic state is 1-A.
 Alpha  occ. eigenvalues --  -14.84016 -10.66911 -10.66109  -1.04210  -0.89271
 Alpha  occ. eigenvalues --   -0.59176  -0.54819  -0.53821  -0.44677  -0.39274
 Alpha  occ. eigenvalues --   -0.39188
 Alpha virt. eigenvalues --    0.03816   0.08144   0.08453   0.10230   0.11344
 Alpha virt. eigenvalues --    0.11419   0.15265   0.16151   0.16309   0.20058
 Alpha virt. eigenvalues --    0.20078   0.25038   0.32609   0.34641   0.35093

 Mulliken charges:
               1
     1  C   -0.086757
     2  C   -0.004713
     3  N   -0.204496
     4  H    0.101547
     5  H    0.099032
     6  H    0.095386
 Sum of Mulliken charges =   0.00000

 Dipole moment (field-independent basis, Debye):
    X=              4.1262    Y=              0.0034    Z=              0.0001  Tot=              4.1262
 Quadrupole moment (field-independent basis, Debye-Ang):
   XX=            -21.0671   YY=            -17.6945   ZZ=            -17.7117
   XY=              0.0145   XZ=              0.0434   YZ=              0.0302

 Normal termination of Gaussian 09 at Thu Aug 27 00:13:11 2020.
