 Gaussian 09, Revision D.01,
 Gaussian 09:  ES64L-G09RevD.01 24-Apr-2013

 --------------------
 #p B2PLYPD3/Def2QZVP
 --------------------

 ------------
 cyanomethane
 ------------
 Symbolic Z-matrix:
 Charge =  0 Multiplicity = 1

                         Standard orientation:
 ---------------------------------------------------------------------
 Center     Atomic      Atomic             Coordinates (Angstroms)
 Number     Number       Type             X           Y           Z
 ---------------------------------------------------------------------
      1          6           0       -1.196860    0.011003   -0.000388
      2          6           0        0.287940   -0.028559   -0.001516
      3          7           0        1.432660    0.012017    0.001375
      4          1           0       -1.498495    1.036511   -0.136731
      5          1           0       -1.541567   -0.387175    0.947891
      6          1           0       -1.535039   -0.628121   -0.809356
 ---------------------------------------------------------------------

 SCF Done:  E(RB2PLYPD3) =  -132.535327197     A.U. after   11 cycles
 E2(B2PLYPD3) =    -0.1795946269D+00 E(B2PLYPD3) =    -0.13271492182399D+03

 The electronic state is 1-A.
 Alpha  occ. eigenvalues --  -14.83821 -10.67216 -10.65926  -1.04335  -0.88978
 Alpha  occ. eigenvalues --   -0.58506  -0.54624  -0.54021  -0.44574  -0.39367
 Alpha  occ. eigenvalues --   -0.39297
 Alpha virt. eigenvalues --    0.03769   0.08394   0.08488   0.10237   0.11365
 Alpha virt. eigenvalues --    0.11416   0.15133   0.15895   0.16295   0.20035
 Alpha virt. eigenvalues --    0.20064   0.24856   0.32591   0.34535   0.34891

 Mulliken charges:
               1
     1  C   -0.095702
     2  C   -0.007303
     3  N   -0.202132
     4  H    0.104660
     5  H    0.100143
     6  H    0.100334
 Sum of Mulliken charges =   0.00000

 Dipole moment (field-independent basis, Debye):
    X=             -4.1139    Y=             -0.0227    Z=             -0.0001  Tot=              4.1140
 Quadrupole moment (field-independent basis, Debye-Ang):
   XX=            -21.2031   YY=            -17.6136   ZZ=            -17.7167
   XY=             -0.0182   XZ=             -0.0227   YZ=             -0.0046

 Normal termination of Gaussian 09 at Wed Aug 26 13:47:18 2020.
