 Gaussian 09, Revision D.01,
 Gaussian 09:  ES64L-G09RevD.01 24-Apr-2013

 --------------------
 #p B2PLYPD3/Def2QZVP
 --------------------

 ------------
 cyanomethane
 ------------
 Symbolic Z-matrix:
 Charge =  0 Multiplicity = 1

                         Standard orientation:
 ---------------------------------------------------------------------
 Center     Atomic      Atomic             Coordinates (Angstroms)
 Number     Number       Type             X           Y           Z
 ---------------------------------------------------------------------
      1          6           0        1.164530   -0.003209    0.019807
      2          6           0       -0.266587    0.003609   -0.035779
      3          7           0       -1.439065   -0.003156    0.015850
      4          1           0        1.539870    1.030863   -0.036186
      5          1           0        1.580882   -0.534857   -0.834320
      6          1           0        1.565042   -0.476313    0.855388
 ---------------------------------------------------------------------

 SCF Done:  E(RB2PLYPD3) =  -132.530591896     A.U. after   12 cycles
 E2(B2PLYPD3) =    -0.1820996116D+00 E(B2PLYPD3) =    -0.13271269150762D+03

 The electronic state is 1-A.
 Alpha  occ. eigenvalues --  -14.84788 -10.66804 -10.66512  -1.03491  -0.89950
 Alpha  occ. eigenvalues --   -0.61152  -0.54494  -0.53540  -0.44981  -0.38654
 Alpha  occ. eigenvalues --   -0.38471
 Alpha virt. eigenvalues --    0.03790   0.07387   0.07433   0.10043   0.11336
 Alpha virt. eigenvalues --    0.11471   0.15584   0.16062   0.16912   0.20174
 Alpha virt. eigenvalues --    0.20218   0.25901   0.32787   0.34272   0.35258

 Mulliken charges:
               1
     1  C   -0.067130
     2  C    0.005250
     3  N   -0.214991
     4  H    0.093098
     5  H    0.088060
     6  H    0.095714
 Sum of Mulliken charges =   0.00000

 Dipole moment (field-independent basis, Debye):
    X=              4.1590    Y=             -0.0128    Z=             -0.0238  Tot=              4.1591
 Quadrupole moment (field-independent basis, Debye-Ang):
   XX=            -20.8109   YY=            -17.7499   ZZ=            -17.9132
   XY=             -0.0849   XZ=              0.0570   YZ=             -0.0432

 Normal termination of Gaussian 09 at Wed Aug 26 15:39:55 2020.
