 Gaussian 09, Revision D.01,
 Gaussian 09:  ES64L-G09RevD.01 24-Apr-2013

 --------------------
 #p B2PLYPD3/Def2QZVP
 --------------------

 ------------
 cyanomethane
 ------------
 Symbolic Z-matrix:
 Charge =  0 Multiplicity = 1

                         Standard orientation:
 ---------------------------------------------------------------------
 Center     Atomic      Atomic             Coordinates (Angstroms)
 Number     Number       Type             X           Y           Z
 ---------------------------------------------------------------------
      1          6           0        1.193590   -0.017436    0.028391
      2          6           0       -0.278047    0.077346    0.012853
      3          7           0       -1.438373   -0.039857   -0.013049
      4          1           0        1.524250    0.961766   -0.345239
      5          1           0        1.571201   -0.777337   -0.732765
      6          1           0        1.479901   -0.264896    0.921880
 ---------------------------------------------------------------------

 SCF Done:  E(RB2PLYPD3) =  -132.518790446     A.U. after   12 cycles
 E2(B2PLYPD3) =    -0.1815624353D+00 E(B2PLYPD3) =    -0.13270035288102D+03

 The electronic state is 1-A.
 Alpha  occ. eigenvalues --  -14.84533 -10.66725 -10.66566  -1.03628  -0.89693
 Alpha  occ. eigenvalues --   -0.59735  -0.56393  -0.52381  -0.44769  -0.39083
 Alpha  occ. eigenvalues --   -0.38549
 Alpha virt. eigenvalues --    0.03478   0.07364   0.08697   0.09983   0.10917
 Alpha virt. eigenvalues --    0.11408   0.15357   0.15505   0.16735   0.20037
 Alpha virt. eigenvalues --    0.20179   0.25395   0.32516   0.33284   0.35579

 Mulliken charges:
               1
     1  C   -0.092431
     2  C    0.001775
     3  N   -0.212024
     4  H    0.098094
     5  H    0.093454
     6  H    0.111132
 Sum of Mulliken charges =   0.00000

 Dipole moment (field-independent basis, Debye):
    X=              4.1071    Y=              0.0514    Z=              0.0062  Tot=              4.1075
 Quadrupole moment (field-independent basis, Debye-Ang):
   XX=            -21.1293   YY=            -17.7691   ZZ=            -17.6961
   XY=             -0.2408   XZ=             -0.1611   YZ=             -0.1126

 Normal termination of Gaussian 09 at Wed Aug 26 20:24:12 2020.
