 Gaussian 09, Revision D.01,
 Gaussian 09:  ES64L-G09RevD.01 24-Apr-2013

 --------------------
 #p B2PLYPD3/Def2QZVP
 --------------------

 ------------
 cyanomethane
 ------------
 Symbolic Z-matrix:
 Charge =  0 Multiplicity = 1

                         Standard orientation:
 ---------------------------------------------------------------------
 Center     Atomic      Atomic             Coordinates (Angstroms)
 Number     Number       Type             X           Y           Z
 ---------------------------------------------------------------------
      1          6           0        1.170173   -0.007765    0.005451
      2          6           0       -0.271795    0.006335   -0.014337
      3          7           0       -1.434758    0.000689    0.005278
      4          1           0        1.598463    0.945402   -0.435764
      5          1           0        1.528923   -0.859141   -0.579476
      6          1           0        1.525650   -0.082498    1.031612
 ---------------------------------------------------------------------

 SCF Done:  E(RB2PLYPD3) =  -132.533233966     A.U. after   11 cycles
 E2(B2PLYPD3) =    -0.1814295944D+00 E(B2PLYPD3) =    -0.13271466356013D+03

 The electronic state is 1-A.
 Alpha  occ. eigenvalues --  -14.84422 -10.67480 -10.66455  -1.03812  -0.89195
 Alpha  occ. eigenvalues --   -0.59814  -0.54237  -0.53119  -0.44840  -0.38804
 Alpha  occ. eigenvalues --   -0.38686
 Alpha virt. eigenvalues --    0.03671   0.07254   0.07703   0.10129   0.11411
 Alpha virt. eigenvalues --    0.11553   0.15443   0.16205   0.16336   0.20117
 Alpha virt. eigenvalues --    0.20153   0.25612   0.32518   0.34133   0.34621

 Mulliken charges:
               1
     1  C   -0.088031
     2  C    0.001180
     3  N   -0.210042
     4  H    0.095277
     5  H    0.100850
     6  H    0.100766
 Sum of Mulliken charges =   0.00000

 Dipole moment (field-independent basis, Debye):
    X=              4.1283    Y=             -0.0081    Z=              0.0029  Tot=              4.1283
 Quadrupole moment (field-independent basis, Debye-Ang):
   XX=            -21.0626   YY=            -17.7759   ZZ=            -17.7877
   XY=              0.0464   XZ=              0.0223   YZ=              0.0340

 Normal termination of Gaussian 09 at Wed Aug 26 22:46:02 2020.
