 Gaussian 09, Revision D.01,
 Gaussian 09:  ES64L-G09RevD.01 24-Apr-2013

 --------------------
 #p B2PLYPD3/Def2QZVP
 --------------------

 ------------
 cyanomethane
 ------------
 Symbolic Z-matrix:
 Charge =  0 Multiplicity = 1

                         Standard orientation:
 ---------------------------------------------------------------------
 Center     Atomic      Atomic             Coordinates (Angstroms)
 Number     Number       Type             X           Y           Z
 ---------------------------------------------------------------------
      1          6           0       -1.170953    0.010839    0.001901
      2          6           0        0.284358   -0.002494   -0.022656
      3          7           0        1.427788   -0.000403    0.010267
      4          1           0       -1.551903    1.040203   -0.002887
      5          1           0       -1.543787   -0.525362    0.920158
      6          1           0       -1.579258   -0.562088   -0.864608
 ---------------------------------------------------------------------

 SCF Done:  E(RB2PLYPD3) =  -132.534321146     A.U. after   11 cycles
 E2(B2PLYPD3) =    -0.1798957747D+00 E(B2PLYPD3) =    -0.13271421692025D+03

 The electronic state is 1-A.
 Alpha  occ. eigenvalues --  -14.83910 -10.67780 -10.65955  -1.04559  -0.88663
 Alpha  occ. eigenvalues --   -0.59443  -0.53958  -0.52689  -0.44772  -0.39364
 Alpha  occ. eigenvalues --   -0.39137
 Alpha virt. eigenvalues --    0.03632   0.07634   0.07916   0.10179   0.11538
 Alpha virt. eigenvalues --    0.11802   0.15396   0.16228   0.16636   0.19993
 Alpha virt. eigenvalues --    0.20073   0.25418   0.32675   0.33843   0.34704

 Mulliken charges:
               1
     1  C   -0.092407
     2  C   -0.001915
     3  N   -0.199701
     4  H    0.101849
     5  H    0.096226
     6  H    0.095948
 Sum of Mulliken charges =   0.00000

 Dipole moment (field-independent basis, Debye):
    X=             -4.0979    Y=             -0.0119    Z=             -0.0114  Tot=              4.0979
 Quadrupole moment (field-independent basis, Debye-Ang):
   XX=            -21.0478   YY=            -17.6510   ZZ=            -17.8402
   XY=              0.0464   XZ=             -0.0458   YZ=              0.0069

 Normal termination of Gaussian 09 at Thu Aug 27 00:07:52 2020.
