 Gaussian 09, Revision D.01,
 Gaussian 09:  ES64L-G09RevD.01 24-Apr-2013

 --------------------
 #p B2PLYPD3/Def2QZVP
 --------------------

 ------------
 cyanomethane
 ------------
 Symbolic Z-matrix:
 Charge =  0 Multiplicity = 1

                         Standard orientation:
 ---------------------------------------------------------------------
 Center     Atomic      Atomic             Coordinates (Angstroms)
 Number     Number       Type             X           Y           Z
 ---------------------------------------------------------------------
      1          6           0        1.188293    0.012245   -0.015075
      2          6           0       -0.289933   -0.049632   -0.000614
      3          7           0       -1.443872    0.022453   -0.001780
      4          1           0        1.543183    1.048214   -0.042260
      5          1           0        1.637867   -0.563707   -0.735402
      6          1           0        1.535895   -0.417354    0.884258
 ---------------------------------------------------------------------

 SCF Done:  E(RB2PLYPD3) =  -132.530115719     A.U. after   12 cycles
 E2(B2PLYPD3) =    -0.1804019252D+00 E(B2PLYPD3) =    -0.13271051764384D+03

 The electronic state is 1-A.
 Alpha  occ. eigenvalues --  -14.84372 -10.66519 -10.66376  -1.04082  -0.89558
 Alpha  occ. eigenvalues --   -0.60447  -0.54604  -0.53517  -0.44878  -0.39358
 Alpha  occ. eigenvalues --   -0.39103
 Alpha virt. eigenvalues --    0.03732   0.07950   0.08504   0.10218   0.11171
 Alpha virt. eigenvalues --    0.11460   0.15295   0.15883   0.17385   0.20059
 Alpha virt. eigenvalues --    0.20116   0.25154   0.32715   0.34500   0.35510

 Mulliken charges:
               1
     1  C   -0.066644
     2  C    0.003122
     3  N   -0.206899
     4  H    0.095066
     5  H    0.089820
     6  H    0.085536
 Sum of Mulliken charges =   0.00000

 Dipole moment (field-independent basis, Debye):
    X=              4.1588    Y=             -0.0679    Z=              0.0361  Tot=              4.1595
 Quadrupole moment (field-independent basis, Debye-Ang):
   XX=            -20.7046   YY=            -17.6179   ZZ=            -17.9907
   XY=             -0.0094   XZ=              0.0111   YZ=              0.0325

 Normal termination of Gaussian 09 at Wed Aug 26 23:53:02 2020.
