 Gaussian 09, Revision D.01,
 Gaussian 09:  ES64L-G09RevD.01 24-Apr-2013

 --------------------
 #p B2PLYPD3/Def2QZVP
 --------------------

 ------------
 cyanomethane
 ------------
 Symbolic Z-matrix:
 Charge =  0 Multiplicity = 1

                         Standard orientation:
 ---------------------------------------------------------------------
 Center     Atomic      Atomic             Coordinates (Angstroms)
 Number     Number       Type             X           Y           Z
 ---------------------------------------------------------------------
      1          6           0        1.173510   -0.002416   -0.036257
      2          6           0       -0.273144   -0.030744   -0.001675
      3          7           0       -1.423826    0.011805    0.016931
      4          1           0        1.692815    0.001714    1.038413
      5          1           0        1.393469    1.037857   -0.439561
      6          1           0        1.478299   -0.923251   -0.489778
 ---------------------------------------------------------------------

 SCF Done:  E(RB2PLYPD3) =  -132.519778227     A.U. after   12 cycles
 E2(B2PLYPD3) =    -0.1811568699D+00 E(B2PLYPD3) =    -0.13270093509655D+03

 The electronic state is 1-A.
 Alpha  occ. eigenvalues --  -14.83952 -10.68383 -10.65999  -1.04192  -0.88815
 Alpha  occ. eigenvalues --   -0.58719  -0.56140  -0.50606  -0.44630  -0.39155
 Alpha  occ. eigenvalues --   -0.38387
 Alpha virt. eigenvalues --    0.03359   0.06359   0.08370   0.10206   0.11259
 Alpha virt. eigenvalues --    0.12166   0.14793   0.15987   0.16474   0.19946
 Alpha virt. eigenvalues --    0.20211   0.25450   0.31605   0.32635   0.35223

 Mulliken charges:
               1
     1  C   -0.105112
     2  C    0.000015
     3  N   -0.206242
     4  H    0.086501
     5  H    0.112273
     6  H    0.112565
 Sum of Mulliken charges =   0.00000

 Dipole moment (field-independent basis, Debye):
    X=              4.0794    Y=             -0.0085    Z=              0.0087  Tot=              4.0794
 Quadrupole moment (field-independent basis, Debye-Ang):
   XX=            -21.3865   YY=            -17.2845   ZZ=            -18.1716
   XY=             -0.0139   XZ=              0.4013   YZ=              0.0514

 Normal termination of Gaussian 09 at Wed Aug 26 23:31:40 2020.
