 Gaussian 09, Revision D.01,
 Gaussian 09:  ES64L-G09RevD.01 24-Apr-2013

 --------------------
 #p B2PLYPD3/Def2QZVP
 --------------------

 ------------
 cyanomethane
 ------------
 Symbolic Z-matrix:
 Charge =  0 Multiplicity = 1

                         Standard orientation:
 ---------------------------------------------------------------------
 Center     Atomic      Atomic             Coordinates (Angstroms)
 Number     Number       Type             X           Y           Z
 ---------------------------------------------------------------------
      1          6           0        1.174121   -0.013281   -0.027670
      2          6           0       -0.293553   -0.068515    0.006554
      3          7           0       -1.436619    0.042724   -0.000515
      4          1           0        1.655573    1.047566   -0.127175
      5          1           0        1.551785   -0.587888   -0.634089
      6          1           0        1.565567   -0.267963    0.891564
 ---------------------------------------------------------------------

 SCF Done:  E(RB2PLYPD3) =  -132.500656996     A.U. after   12 cycles
 E2(B2PLYPD3) =    -0.1798508407D+00 E(B2PLYPD3) =    -0.13268050783700D+03

 The electronic state is 1-A.
 Alpha  occ. eigenvalues --  -14.84324 -10.66379 -10.65455  -1.04555  -0.90592
 Alpha  occ. eigenvalues --   -0.61730  -0.56663  -0.51571  -0.45042  -0.39822
 Alpha  occ. eigenvalues --   -0.39133
 Alpha virt. eigenvalues --    0.03291   0.07551   0.09425   0.10138   0.10950
 Alpha virt. eigenvalues --    0.11814   0.15584   0.16159   0.17871   0.19938
 Alpha virt. eigenvalues --    0.20301   0.25460   0.32456   0.33725   0.36135

 Mulliken charges:
               1
     1  C   -0.073546
     2  C    0.009507
     3  N   -0.201888
     4  H    0.081727
     5  H    0.106416
     6  H    0.077783
 Sum of Mulliken charges =   0.00000

 Dipole moment (field-independent basis, Debye):
    X=              4.1292    Y=             -0.1096    Z=              0.0696  Tot=              4.1313
 Quadrupole moment (field-independent basis, Debye-Ang):
   XX=            -20.4048   YY=            -17.6972   ZZ=            -17.9290
   XY=              0.2311   XZ=              0.1545   YZ=              0.1509

 Normal termination of Gaussian 09 at Wed Aug 26 16:35:38 2020.
