 Gaussian 09, Revision D.01,
 Gaussian 09:  ES64L-G09RevD.01 24-Apr-2013

 --------------------
 #p B2PLYPD3/Def2QZVP
 --------------------

 ------------
 cyanomethane
 ------------
 Symbolic Z-matrix:
 Charge =  0 Multiplicity = 1

                         Standard orientation:
 ---------------------------------------------------------------------
 Center     Atomic      Atomic             Coordinates (Angstroms)
 Number     Number       Type             X           Y           Z
 ---------------------------------------------------------------------
      1          6           0        1.145077   -0.019194   -0.018913
      2          6           0       -0.263444    0.047277    0.015600
      3          7           0       -1.428770   -0.029764   -0.011729
      4          1           0        1.475818    1.014890   -0.036646
      5          1           0        1.706741   -0.551516   -0.678589
      6          1           0        1.529034   -0.423522    0.817214
 ---------------------------------------------------------------------

 SCF Done:  E(RB2PLYPD3) =  -132.513892151     A.U. after   12 cycles
 E2(B2PLYPD3) =    -0.1816706708D+00 E(B2PLYPD3) =    -0.13269556282206D+03

 The electronic state is 1-A.
 Alpha  occ. eigenvalues --  -14.84688 -10.66698 -10.64946  -1.03866  -0.91359
 Alpha  occ. eigenvalues --   -0.63873  -0.54583  -0.53571  -0.45096  -0.38651
 Alpha  occ. eigenvalues --   -0.38608
 Alpha virt. eigenvalues --    0.03892   0.07151   0.08118   0.09730   0.11472
 Alpha virt. eigenvalues --    0.11846   0.15443   0.16214   0.18071   0.20098
 Alpha virt. eigenvalues --    0.20796   0.26419   0.33225   0.34758   0.35647

 Mulliken charges:
               1
     1  C   -0.049057
     2  C    0.020124
     3  N   -0.213974
     4  H    0.082362
     5  H    0.081277
     6  H    0.079268
 Sum of Mulliken charges =   0.00000

 Dipole moment (field-independent basis, Debye):
    X=              4.1793    Y=              0.0005    Z=              0.0739  Tot=              4.1800
 Quadrupole moment (field-independent basis, Debye-Ang):
   XX=            -20.3786   YY=            -17.5929   ZZ=            -18.1124
   XY=             -0.3688   XZ=             -0.0065   YZ=             -0.0167

 Normal termination of Gaussian 09 at Wed Aug 26 19:29:34 2020.
