 Gaussian 09, Revision D.01,
 Gaussian 09:  ES64L-G09RevD.01 24-Apr-2013

 --------------------
 #p B2PLYPD3/Def2QZVP
 --------------------

 ------------
 cyanomethane
 ------------
 Symbolic Z-matrix:
 Charge =  0 Multiplicity = 1

                         Standard orientation:
 ---------------------------------------------------------------------
 Center     Atomic      Atomic             Coordinates (Angstroms)
 Number     Number       Type             X           Y           Z
 ---------------------------------------------------------------------
      1          6           0       -1.177457    0.003369    0.007578
      2          6           0        0.285536    0.019526    0.004065
      3          7           0        1.436099   -0.007446   -0.002598
      4          1           0       -1.558206   -0.358271    0.947230
      5          1           0       -1.533780   -0.712539   -0.779151
      6          1           0       -1.609179    0.985559   -0.219749
 ---------------------------------------------------------------------

 SCF Done:  E(RB2PLYPD3) =  -132.534808026     A.U. after   12 cycles
 E2(B2PLYPD3) =    -0.1803000274D+00 E(B2PLYPD3) =    -0.13271510805297D+03

 The electronic state is 1-A.
 Alpha  occ. eigenvalues --  -14.84158 -10.67426 -10.66251  -1.04286  -0.88864
 Alpha  occ. eigenvalues --   -0.59814  -0.54058  -0.52942  -0.44828  -0.39292
 Alpha  occ. eigenvalues --   -0.39070
 Alpha virt. eigenvalues --    0.03692   0.07704   0.07981   0.10196   0.11379
 Alpha virt. eigenvalues --    0.11651   0.15376   0.16260   0.16730   0.20026
 Alpha virt. eigenvalues --    0.20095   0.25258   0.32615   0.34000   0.35056

 Mulliken charges:
               1
     1  C   -0.083651
     2  C   -0.000534
     3  N   -0.203435
     4  H    0.097746
     5  H    0.093297
     6  H    0.096576
 Sum of Mulliken charges =   0.00000

 Dipole moment (field-independent basis, Debye):
    X=             -4.1260    Y=             -0.0042    Z=              0.0044  Tot=              4.1260
 Quadrupole moment (field-independent basis, Debye-Ang):
   XX=            -20.9308   YY=            -17.7529   ZZ=            -17.8176
   XY=              0.0257   XZ=              0.0113   YZ=             -0.0431

 Normal termination of Gaussian 09 at Thu Aug 27 00:00:35 2020.
