 Gaussian 09, Revision D.01,
 Gaussian 09:  ES64L-G09RevD.01 24-Apr-2013

 --------------------
 #p B2PLYPD3/Def2QZVP
 --------------------

 ------------
 cyanomethane
 ------------
 Symbolic Z-matrix:
 Charge =  0 Multiplicity = 1

                         Standard orientation:
 ---------------------------------------------------------------------
 Center     Atomic      Atomic             Coordinates (Angstroms)
 Number     Number       Type             X           Y           Z
 ---------------------------------------------------------------------
      1          6           0        1.178048   -0.000791    0.000906
      2          6           0       -0.285440   -0.009435    0.001146
      3          7           0       -1.435519    0.007103    0.001589
      4          1           0        1.588647    1.045953   -0.097714
      5          1           0        1.523204   -0.596302   -0.851167
      6          1           0        1.581130   -0.438013    0.925448
 ---------------------------------------------------------------------

 SCF Done:  E(RB2PLYPD3) =  -132.534475691     A.U. after   12 cycles
 E2(B2PLYPD3) =    -0.1803523974D+00 E(B2PLYPD3) =    -0.13271482808819D+03

 The electronic state is 1-A.
 Alpha  occ. eigenvalues --  -14.84120 -10.67718 -10.66209  -1.04299  -0.88668
 Alpha  occ. eigenvalues --   -0.59502  -0.53697  -0.53049  -0.44803  -0.39194
 Alpha  occ. eigenvalues --   -0.39142
 Alpha virt. eigenvalues --    0.03646   0.07554   0.07989   0.10191   0.11497
 Alpha virt. eigenvalues --    0.11575   0.15338   0.16168   0.16678   0.20044
 Alpha virt. eigenvalues --    0.20075   0.25243   0.32530   0.34215   0.34527

 Mulliken charges:
               1
     1  C   -0.089393
     2  C   -0.001160
     3  N   -0.202876
     4  H    0.096507
     5  H    0.099038
     6  H    0.097885
 Sum of Mulliken charges =   0.00000

 Dipole moment (field-independent basis, Debye):
    X=              4.1182    Y=             -0.0210    Z=             -0.0047  Tot=              4.1183
 Quadrupole moment (field-independent basis, Debye-Ang):
   XX=            -21.0069   YY=            -17.7655   ZZ=            -17.7886
   XY=              0.0526   XZ=              0.0437   YZ=              0.0093

 Normal termination of Gaussian 09 at Wed Aug 26 23:55:20 2020.
