 Gaussian 09, Revision D.01,
 Gaussian 09:  ES64L-G09RevD.01 24-Apr-2013

 --------------------
 #p B2PLYPD3/Def2QZVP
 --------------------

 ------------
 cyanomethane
 ------------
 Symbolic Z-matrix:
 Charge =  0 Multiplicity = 1

                         Standard orientation:
 ---------------------------------------------------------------------
 Center     Atomic      Atomic             Coordinates (Angstroms)
 Number     Number       Type             X           Y           Z
 ---------------------------------------------------------------------
      1          6           0       -1.159945    0.014109    0.001554
      2          6           0        0.266529   -0.013112    0.024432
      3          7           0        1.432441    0.005902   -0.015566
      4          1           0       -1.519772   -0.376710    0.968284
      5          1           0       -1.576715   -0.707517   -0.813968
      6          1           0       -1.570102    1.036930   -0.201267
 ---------------------------------------------------------------------

 SCF Done:  E(RB2PLYPD3) =  -132.528561570     A.U. after   12 cycles
 E2(B2PLYPD3) =    -0.1821607276D+00 E(B2PLYPD3) =    -0.13271072229800D+03

 The electronic state is 1-A.
 Alpha  occ. eigenvalues --  -14.84535 -10.68041 -10.66520  -1.03726  -0.89012
 Alpha  occ. eigenvalues --   -0.59820  -0.54030  -0.52401  -0.44897  -0.38650
 Alpha  occ. eigenvalues --   -0.38389
 Alpha virt. eigenvalues --    0.03474   0.06637   0.07408   0.10045   0.11433
 Alpha virt. eigenvalues --    0.11739   0.15496   0.15802   0.16734   0.20109
 Alpha virt. eigenvalues --    0.20211   0.25886   0.32421   0.33427   0.34415

 Mulliken charges:
               1
     1  C   -0.094831
     2  C    0.004308
     3  N   -0.210998
     4  H    0.101574
     5  H    0.095775
     6  H    0.104172
 Sum of Mulliken charges =   0.00000

 Dipole moment (field-independent basis, Debye):
    X=             -4.1164    Y=             -0.0167    Z=              0.0318  Tot=              4.1166
 Quadrupole moment (field-independent basis, Debye-Ang):
   XX=            -21.1182   YY=            -17.7471   ZZ=            -17.8728
   XY=             -0.0137   XZ=              0.1089   YZ=             -0.0592

 Normal termination of Gaussian 09 at Wed Aug 26 15:27:23 2020.
