 Gaussian 09, Revision D.01,
 Gaussian 09:  ES64L-G09RevD.01 24-Apr-2013

 --------------------
 #p B2PLYPD3/Def2QZVP
 --------------------

 ------------
 cyanomethane
 ------------
 Symbolic Z-matrix:
 Charge =  0 Multiplicity = 1

                         Standard orientation:
 ---------------------------------------------------------------------
 Center     Atomic      Atomic             Coordinates (Angstroms)
 Number     Number       Type             X           Y           Z
 ---------------------------------------------------------------------
      1          6           0       -1.174526   -0.015680   -0.027869
      2          6           0        0.253616   -0.030519    0.007638
      3          7           0        1.426516    0.010742   -0.003033
      4          1           0       -1.461411    0.063843    0.964094
      5          1           0       -1.573936   -0.796816   -0.407390
      6          1           0       -1.424807    0.934972   -0.414088
 ---------------------------------------------------------------------

 SCF Done:  E(RB2PLYPD3) =  -132.513227856     A.U. after   12 cycles
 E2(B2PLYPD3) =    -0.1814774286D+00 E(B2PLYPD3) =    -0.13269470528504D+03

 The electronic state is 1-A.
 Alpha  occ. eigenvalues --  -14.84455 -10.66514 -10.64691  -1.03402  -0.91810
 Alpha  occ. eigenvalues --   -0.61352  -0.57759  -0.54243  -0.44696  -0.38764
 Alpha  occ. eigenvalues --   -0.38154
 Alpha virt. eigenvalues --    0.03963   0.08226   0.08619   0.10115   0.10852
 Alpha virt. eigenvalues --    0.11689   0.15095   0.15749   0.16993   0.20133
 Alpha virt. eigenvalues --    0.20389   0.25817   0.33152   0.34237   0.36276

 Mulliken charges:
               1
     1  C   -0.069787
     2  C    0.004084
     3  N   -0.220641
     4  H    0.087153
     5  H    0.100794
     6  H    0.098397
 Sum of Mulliken charges =   0.00000

 Dipole moment (field-independent basis, Debye):
    X=             -4.1743    Y=              0.0195    Z=              0.0749  Tot=              4.1750
 Quadrupole moment (field-independent basis, Debye-Ang):
   XX=            -20.9848   YY=            -17.4173   ZZ=            -17.8860
   XY=             -0.0001   XZ=             -0.1212   YZ=              0.0704

 Normal termination of Gaussian 09 at Wed Aug 26 18:57:53 2020.
