 Gaussian 09, Revision D.01,
 Gaussian 09:  ES64L-G09RevD.01 24-Apr-2013

 --------------------
 #p B2PLYPD3/Def2QZVP
 --------------------

 ------------
 cyanomethane
 ------------
 Symbolic Z-matrix:
 Charge =  0 Multiplicity = 1

                         Standard orientation:
 ---------------------------------------------------------------------
 Center     Atomic      Atomic             Coordinates (Angstroms)
 Number     Number       Type             X           Y           Z
 ---------------------------------------------------------------------
      1          6           0        1.170885   -0.031787   -0.023875
      2          6           0       -0.294946    0.087535   -0.006179
      3          7           0       -1.416439   -0.033995    0.011613
      4          1           0        1.421643   -0.535756   -0.813850
      5          1           0        1.559456   -0.552139    0.867875
      6          1           0        1.678341    0.991365    0.045006
 ---------------------------------------------------------------------

 SCF Done:  E(RB2PLYPD3) =  -132.521023790     A.U. after   12 cycles
 E2(B2PLYPD3) =    -0.1783029794D+00 E(B2PLYPD3) =    -0.13269932676989D+03

 The electronic state is 1-A.
 Alpha  occ. eigenvalues --  -14.83541 -10.66534 -10.65516  -1.05265  -0.89446
 Alpha  occ. eigenvalues --   -0.59812  -0.56062  -0.51917  -0.44774  -0.40094
 Alpha  occ. eigenvalues --   -0.39529
 Alpha virt. eigenvalues --    0.03727   0.07680   0.09015   0.10194   0.11494
 Alpha virt. eigenvalues --    0.11854   0.15550   0.16377   0.16978   0.19784
 Alpha virt. eigenvalues --    0.20014   0.25673   0.32302   0.34062   0.36083

 Mulliken charges:
               1
     1  C   -0.085626
     2  C   -0.003071
     3  N   -0.191211
     4  H    0.107140
     5  H    0.087586
     6  H    0.085182
 Sum of Mulliken charges =   0.00000

 Dipole moment (field-independent basis, Debye):
    X=              4.0514    Y=              0.0224    Z=             -0.0015  Tot=              4.0515
 Quadrupole moment (field-independent basis, Debye-Ang):
   XX=            -20.8383   YY=            -17.6548   ZZ=            -17.7111
   XY=             -0.1334   XZ=              0.2196   YZ=              0.1310

 Normal termination of Gaussian 09 at Wed Aug 26 18:57:42 2020.
