 Gaussian 09, Revision D.01,
 Gaussian 09:  ES64L-G09RevD.01 24-Apr-2013

 --------------------
 #p B2PLYPD3/Def2QZVP
 --------------------

 ------------
 cyanomethane
 ------------
 Symbolic Z-matrix:
 Charge =  0 Multiplicity = 1

                         Standard orientation:
 ---------------------------------------------------------------------
 Center     Atomic      Atomic             Coordinates (Angstroms)
 Number     Number       Type             X           Y           Z
 ---------------------------------------------------------------------
      1          6           0        1.182939   -0.003334   -0.007533
      2          6           0       -0.285387   -0.022757    0.004513
      3          7           0       -1.434217    0.011018    0.000723
      4          1           0        1.583465    0.042784    0.997351
      5          1           0        1.519200    0.905180   -0.505807
      6          1           0        1.551542   -0.868543   -0.478486
 ---------------------------------------------------------------------

 SCF Done:  E(RB2PLYPD3) =  -132.535119291     A.U. after   11 cycles
 E2(B2PLYPD3) =    -0.1798415015D+00 E(B2PLYPD3) =    -0.13271496079228D+03

 The electronic state is 1-A.
 Alpha  occ. eigenvalues --  -14.84055 -10.66761 -10.66137  -1.04302  -0.89347
 Alpha  occ. eigenvalues --   -0.59730  -0.54924  -0.53367  -0.44757  -0.39371
 Alpha  occ. eigenvalues --   -0.39168
 Alpha virt. eigenvalues --    0.03806   0.08020   0.08452   0.10226   0.11270
 Alpha virt. eigenvalues --    0.11592   0.15353   0.16395   0.16452   0.20004
 Alpha virt. eigenvalues --    0.20112   0.25166   0.32791   0.34482   0.35296

 Mulliken charges:
               1
     1  C   -0.078648
     2  C   -0.003094
     3  N   -0.203617
     4  H    0.091393
     5  H    0.095755
     6  H    0.098211
 Sum of Mulliken charges =   0.00000

 Dipole moment (field-independent basis, Debye):
    X=              4.1309    Y=             -0.0089    Z=              0.0115  Tot=              4.1309
 Quadrupole moment (field-independent basis, Debye-Ang):
   XX=            -20.9295   YY=            -17.6374   ZZ=            -17.8295
   XY=              0.0571   XZ=              0.0763   YZ=              0.0318

 Normal termination of Gaussian 09 at Wed Aug 26 09:41:31 2020.
