 Gaussian 09, Revision D.01,
 Gaussian 09:  ES64L-G09RevD.01 24-Apr-2013

 --------------------
 #p B2PLYPD3/Def2QZVP
 --------------------

 ------------
 cyanomethane
 ------------
 Symbolic Z-matrix:
 Charge =  0 Multiplicity = 1

                         Standard orientation:
 ---------------------------------------------------------------------
 Center     Atomic      Atomic             Coordinates (Angstroms)
 Number     Number       Type             X           Y           Z
 ---------------------------------------------------------------------
      1          6           0       -1.198881    0.014174   -0.007153
      2          6           0        0.287994    0.007699   -0.025937
      3          7           0        1.436106   -0.008294    0.016876
      4          1           0       -1.488333    1.034997   -0.074475
      5          1           0       -1.575440   -0.463026    0.987187
      6          1           0       -1.523646   -0.645154   -0.832299
 ---------------------------------------------------------------------

 SCF Done:  E(RB2PLYPD3) =  -132.529663643     A.U. after   12 cycles
 E2(B2PLYPD3) =    -0.1803593790D+00 E(B2PLYPD3) =    -0.13271002302201D+03

 The electronic state is 1-A.
 Alpha  occ. eigenvalues --  -14.83937 -10.68116 -10.66062  -1.04189  -0.88416
 Alpha  occ. eigenvalues --   -0.58090  -0.55255  -0.52233  -0.44579  -0.39342
 Alpha  occ. eigenvalues --   -0.38990
 Alpha virt. eigenvalues --    0.03501   0.07516   0.08615   0.10220   0.11169
 Alpha virt. eigenvalues --    0.11615   0.15018   0.15819   0.16202   0.20005
 Alpha virt. eigenvalues --    0.20107   0.24767   0.32084   0.33282   0.35085

 Mulliken charges:
               1
     1  C   -0.106856
     2  C   -0.004969
     3  N   -0.203142
     4  H    0.111316
     5  H    0.097844
     6  H    0.105808
 Sum of Mulliken charges =   0.00000

 Dipole moment (field-independent basis, Debye):
    X=             -4.1033    Y=              0.0058    Z=             -0.0262  Tot=              4.1034
 Quadrupole moment (field-independent basis, Debye-Ang):
   XX=            -21.3425   YY=            -17.5863   ZZ=            -17.8098
   XY=              0.1167   XZ=             -0.1428   YZ=              0.0460

 Normal termination of Gaussian 09 at Wed Aug 26 12:31:27 2020.
