 Gaussian 09, Revision D.01,
 Gaussian 09:  ES64L-G09RevD.01 24-Apr-2013

 --------------------
 #p B2PLYPD3/Def2QZVP
 --------------------

 ------------
 cyanomethane
 ------------
 Symbolic Z-matrix:
 Charge =  0 Multiplicity = 1

                         Standard orientation:
 ---------------------------------------------------------------------
 Center     Atomic      Atomic             Coordinates (Angstroms)
 Number     Number       Type             X           Y           Z
 ---------------------------------------------------------------------
      1          6           0       -1.185740    0.019216    0.002900
      2          6           0        0.276940   -0.002141    0.039170
      3          7           0        1.440137    0.000765   -0.022407
      4          1           0       -1.517808   -0.192633    0.980239
      5          1           0       -1.540084   -0.881881   -0.664893
      6          1           0       -1.570263    0.966713   -0.410919
 ---------------------------------------------------------------------

 SCF Done:  E(RB2PLYPD3) =  -132.528006105     A.U. after   12 cycles
 E2(B2PLYPD3) =    -0.1817469508D+00 E(B2PLYPD3) =    -0.13270975305539D+03

 The electronic state is 1-A.
 Alpha  occ. eigenvalues --  -14.84458 -10.67879 -10.66551  -1.03674  -0.88846
 Alpha  occ. eigenvalues --   -0.59121  -0.55026  -0.52233  -0.44771  -0.38944
 Alpha  occ. eigenvalues --   -0.38533
 Alpha virt. eigenvalues --    0.03434   0.07032   0.08182   0.10120   0.11085
 Alpha virt. eigenvalues --    0.11590   0.15231   0.15569   0.16681   0.20059
 Alpha virt. eigenvalues --    0.20194   0.25283   0.32033   0.33251   0.35070

 Mulliken charges:
               1
     1  C   -0.098470
     2  C    0.001696
     3  N   -0.210751
     4  H    0.104819
     5  H    0.095244
     6  H    0.107462
 Sum of Mulliken charges =   0.00000

 Dipole moment (field-independent basis, Debye):
    X=             -4.1226    Y=             -0.0111    Z=              0.0505  Tot=              4.1230
 Quadrupole moment (field-independent basis, Debye-Ang):
   XX=            -21.2038   YY=            -17.6908   ZZ=            -17.8583
   XY=              0.0040   XZ=              0.1031   YZ=             -0.1010

 Normal termination of Gaussian 09 at Wed Aug 26 14:27:06 2020.
