 Gaussian 09, Revision D.01,
 Gaussian 09:  ES64L-G09RevD.01 24-Apr-2013

 --------------------
 #p B2PLYPD3/Def2QZVP
 --------------------

 ------------
 cyanomethane
 ------------
 Symbolic Z-matrix:
 Charge =  0 Multiplicity = 1

                         Standard orientation:
 ---------------------------------------------------------------------
 Center     Atomic      Atomic             Coordinates (Angstroms)
 Number     Number       Type             X           Y           Z
 ---------------------------------------------------------------------
      1          6           0       -1.185627    0.010734   -0.001363
      2          6           0        0.267554    0.016391   -0.008206
      3          7           0        1.431749   -0.016965    0.008162
      4          1           0       -1.395081    0.974456   -0.323657
      5          1           0       -1.574230   -0.219154    0.993163
      6          1           0       -1.544497   -0.799300   -0.669222
 ---------------------------------------------------------------------

 SCF Done:  E(RB2PLYPD3) =  -132.529295505     A.U. after   12 cycles
 E2(B2PLYPD3) =    -0.1813326483D+00 E(B2PLYPD3) =    -0.13271062815317D+03

 The electronic state is 1-A.
 Alpha  occ. eigenvalues --  -14.84289 -10.66883 -10.66352  -1.03637  -0.89850
 Alpha  occ. eigenvalues --   -0.59129  -0.55997  -0.53317  -0.44636  -0.38772
 Alpha  occ. eigenvalues --   -0.38596
 Alpha virt. eigenvalues --    0.03746   0.07420   0.08612   0.10146   0.11106
 Alpha virt. eigenvalues --    0.11514   0.15104   0.15660   0.16339   0.20116
 Alpha virt. eigenvalues --    0.20232   0.25350   0.32619   0.34049   0.35187

 Mulliken charges:
               1
     1  C   -0.095035
     2  C   -0.002231
     3  N   -0.213475
     4  H    0.110567
     5  H    0.099785
     6  H    0.100390
 Sum of Mulliken charges =   0.00000

 Dipole moment (field-independent basis, Debye):
    X=             -4.1233    Y=              0.0121    Z=             -0.0013  Tot=              4.1233
 Quadrupole moment (field-independent basis, Debye-Ang):
   XX=            -21.2793   YY=            -17.5620   ZZ=            -17.8139
   XY=              0.2554   XZ=             -0.1362   YZ=             -0.0510

 Normal termination of Gaussian 09 at Wed Aug 26 13:01:31 2020.
