 Gaussian 09, Revision D.01,
 Gaussian 09:  ES64L-G09RevD.01 24-Apr-2013

 --------------------
 #p B2PLYPD3/Def2QZVP
 --------------------

 ------------
 cyanomethane
 ------------
 Symbolic Z-matrix:
 Charge =  0 Multiplicity = 1

                         Standard orientation:
 ---------------------------------------------------------------------
 Center     Atomic      Atomic             Coordinates (Angstroms)
 Number     Number       Type             X           Y           Z
 ---------------------------------------------------------------------
      1          6           0       -1.186014   -0.004708   -0.010299
      2          6           0        0.280617    0.009383    0.010961
      3          7           0        1.435941   -0.001452   -0.002581
      4          1           0       -1.554535   -0.325379    0.965390
      5          1           0       -1.490881   -0.682438   -0.750373
      6          1           0       -1.573792    0.989935   -0.200922
 ---------------------------------------------------------------------

 SCF Done:  E(RB2PLYPD3) =  -132.534737145     A.U. after   11 cycles
 E2(B2PLYPD3) =    -0.1803436681D+00 E(B2PLYPD3) =    -0.13271508081301D+03

 The electronic state is 1-A.
 Alpha  occ. eigenvalues --  -14.84175 -10.66795 -10.66259  -1.04030  -0.89452
 Alpha  occ. eigenvalues --   -0.59474  -0.55010  -0.53700  -0.44727  -0.39153
 Alpha  occ. eigenvalues --   -0.39018
 Alpha virt. eigenvalues --    0.03824   0.07984   0.08343   0.10214   0.11286
 Alpha virt. eigenvalues --    0.11434   0.15324   0.16133   0.16367   0.20076
 Alpha virt. eigenvalues --    0.20118   0.25166   0.32659   0.34510   0.35227

 Mulliken charges:
               1
     1  C   -0.083233
     2  C   -0.003031
     3  N   -0.207209
     4  H    0.095043
     5  H    0.101810
     6  H    0.096621
 Sum of Mulliken charges =   0.00000

 Dipole moment (field-independent basis, Debye):
    X=             -4.1353    Y=             -0.0025    Z=              0.0060  Tot=              4.1354
 Quadrupole moment (field-independent basis, Debye-Ang):
   XX=            -21.0287   YY=            -17.7086   ZZ=            -17.7399
   XY=             -0.0356   XZ=             -0.0322   YZ=              0.0431

 Normal termination of Gaussian 09 at Wed Aug 26 12:51:48 2020.
