 Gaussian 09, Revision D.01,
 Gaussian 09:  ES64L-G09RevD.01 24-Apr-2013

 --------------------
 #p B2PLYPD3/Def2QZVP
 --------------------

 ------------
 cyanomethane
 ------------
 Symbolic Z-matrix:
 Charge =  0 Multiplicity = 1

                         Standard orientation:
 ---------------------------------------------------------------------
 Center     Atomic      Atomic             Coordinates (Angstroms)
 Number     Number       Type             X           Y           Z
 ---------------------------------------------------------------------
      1          6           0        1.178738   -0.007623   -0.010133
      2          6           0       -0.287985    0.003785    0.020683
      3          7           0       -1.435412   -0.000846   -0.008666
      4          1           0        1.571005    1.032005   -0.065760
      5          1           0        1.551820   -0.558671   -0.830665
      6          1           0        1.580544   -0.444386    0.893793
 ---------------------------------------------------------------------

 SCF Done:  E(RB2PLYPD3) =  -132.535011900     A.U. after   11 cycles
 E2(B2PLYPD3) =    -0.1798462531D+00 E(B2PLYPD3) =    -0.13271485815306D+03

 The electronic state is 1-A.
 Alpha  occ. eigenvalues --  -14.84085 -10.66989 -10.66171  -1.04411  -0.89113
 Alpha  occ. eigenvalues --   -0.60004  -0.54232  -0.53253  -0.44826  -0.39396
 Alpha  occ. eigenvalues --   -0.39249
 Alpha virt. eigenvalues --    0.03774   0.07937   0.08198   0.10200   0.11443
 Alpha virt. eigenvalues --    0.11550   0.15405   0.16358   0.16764   0.20037
 Alpha virt. eigenvalues --    0.20053   0.25221   0.32700   0.34390   0.35203

 Mulliken charges:
               1
     1  C   -0.076812
     2  C   -0.001512
     3  N   -0.202120
     4  H    0.091698
     5  H    0.096819
     6  H    0.091927
 Sum of Mulliken charges =   0.00000

 Dipole moment (field-independent basis, Debye):
    X=              4.1276    Y=             -0.0091    Z=              0.0162  Tot=              4.1276
 Quadrupole moment (field-independent basis, Debye-Ang):
   XX=            -20.8559   YY=            -17.7443   ZZ=            -17.7943
   XY=             -0.0208   XZ=             -0.0193   YZ=              0.0304

 Normal termination of Gaussian 09 at Wed Aug 26 10:16:12 2020.
