 Gaussian 09, Revision D.01,
 Gaussian 09:  ES64L-G09RevD.01 24-Apr-2013

 --------------------
 #p B2PLYPD3/Def2QZVP
 --------------------

 ------------
 cyanomethane
 ------------
 Symbolic Z-matrix:
 Charge =  0 Multiplicity = 1

                         Standard orientation:
 ---------------------------------------------------------------------
 Center     Atomic      Atomic             Coordinates (Angstroms)
 Number     Number       Type             X           Y           Z
 ---------------------------------------------------------------------
      1          6           0        1.187560    0.000885   -0.016293
      2          6           0       -0.289980    0.016500    0.022480
      3          7           0       -1.437619   -0.007082   -0.012410
      4          1           0        1.588085    1.023815   -0.200509
      5          1           0        1.566782   -0.734448   -0.739442
      6          1           0        1.522983   -0.344096    0.989698
 ---------------------------------------------------------------------

 SCF Done:  E(RB2PLYPD3) =  -132.533682271     A.U. after   12 cycles
 E2(B2PLYPD3) =    -0.1802626936D+00 E(B2PLYPD3) =    -0.13271394496511D+03

 The electronic state is 1-A.
 Alpha  occ. eigenvalues --  -14.84049 -10.67931 -10.66177  -1.04319  -0.88395
 Alpha  occ. eigenvalues --   -0.59045  -0.53860  -0.52858  -0.44741  -0.39363
 Alpha  occ. eigenvalues --   -0.39113
 Alpha virt. eigenvalues --    0.03618   0.07786   0.07980   0.10188   0.11352
 Alpha virt. eigenvalues --    0.11617   0.15214   0.15774   0.16951   0.20012
 Alpha virt. eigenvalues --    0.20083   0.25039   0.32397   0.33775   0.34859

 Mulliken charges:
               1
     1  C   -0.094971
     2  C   -0.001740
     3  N   -0.202016
     4  H    0.101394
     5  H    0.101595
     6  H    0.095737
 Sum of Mulliken charges =   0.00000

 Dipole moment (field-independent basis, Debye):
    X=              4.1163    Y=             -0.0091    Z=              0.0371  Tot=              4.1165
 Quadrupole moment (field-independent basis, Debye-Ang):
   XX=            -21.0841   YY=            -17.6427   ZZ=            -17.8828
   XY=             -0.0582   XZ=             -0.0610   YZ=              0.0179

 Normal termination of Gaussian 09 at Wed Aug 26 13:11:11 2020.
