 Gaussian 09, Revision D.01,
 Gaussian 09:  ES64L-G09RevD.01 24-Apr-2013

 --------------------
 #p B2PLYPD3/Def2QZVP
 --------------------

 ------------
 cyanomethane
 ------------
 Symbolic Z-matrix:
 Charge =  0 Multiplicity = 1

                         Standard orientation:
 ---------------------------------------------------------------------
 Center     Atomic      Atomic             Coordinates (Angstroms)
 Number     Number       Type             X           Y           Z
 ---------------------------------------------------------------------
      1          6           0       -1.178932   -0.011282    0.002189
      2          6           0        0.270312    0.024108   -0.026300
      3          7           0        1.430632   -0.013687    0.012687
      4          1           0       -1.495454    1.007403   -0.284208
      5          1           0       -1.517543   -0.226398    1.027814
      6          1           0       -1.549712   -0.762155   -0.687754
 ---------------------------------------------------------------------

 SCF Done:  E(RB2PLYPD3) =  -132.533483943     A.U. after   12 cycles
 E2(B2PLYPD3) =    -0.1811931344D+00 E(B2PLYPD3) =    -0.13271467707709D+03

 The electronic state is 1-A.
 Alpha  occ. eigenvalues --  -14.84261 -10.67337 -10.66301  -1.03790  -0.89326
 Alpha  occ. eigenvalues --   -0.59191  -0.54451  -0.53823  -0.44701  -0.38832
 Alpha  occ. eigenvalues --   -0.38676
 Alpha virt. eigenvalues --    0.03688   0.07623   0.07967   0.10106   0.11329
 Alpha virt. eigenvalues --    0.11491   0.15367   0.15594   0.16449   0.20118
 Alpha virt. eigenvalues --    0.20162   0.25518   0.32674   0.34052   0.34691

 Mulliken charges:
               1
     1  C   -0.096808
     2  C   -0.000320
     3  N   -0.210767
     4  H    0.101207
     5  H    0.102519
     6  H    0.104169
 Sum of Mulliken charges =   0.00000

 Dipole moment (field-independent basis, Debye):
    X=             -4.1126    Y=              0.0211    Z=             -0.0098  Tot=              4.1127
 Quadrupole moment (field-independent basis, Debye-Ang):
   XX=            -21.2545   YY=            -17.6827   ZZ=            -17.7328
   XY=              0.1080   XZ=             -0.0719   YZ=              0.0273

 Normal termination of Gaussian 09 at Wed Aug 26 11:55:21 2020.
