 Gaussian 09, Revision D.01,
 Gaussian 09:  ES64L-G09RevD.01 24-Apr-2013

 --------------------
 #p B2PLYPD3/Def2QZVP
 --------------------

 ------------
 cyanomethane
 ------------
 Symbolic Z-matrix:
 Charge =  0 Multiplicity = 1

                         Standard orientation:
 ---------------------------------------------------------------------
 Center     Atomic      Atomic             Coordinates (Angstroms)
 Number     Number       Type             X           Y           Z
 ---------------------------------------------------------------------
      1          6           0        1.179588    0.007068   -0.010357
      2          6           0       -0.264910    0.033204    0.009488
      3          7           0       -1.428046   -0.017701   -0.002879
      4          1           0        1.516538   -0.189499    1.005774
      5          1           0        1.499196    0.907798   -0.361766
      6          1           0        1.492518   -0.836021   -0.618640
 ---------------------------------------------------------------------

 SCF Done:  E(RB2PLYPD3) =  -132.530517478     A.U. after   11 cycles
 E2(B2PLYPD3) =    -0.1810114864D+00 E(B2PLYPD3) =    -0.13271152896476D+03

 The electronic state is 1-A.
 Alpha  occ. eigenvalues --  -14.84272 -10.66318 -10.66259  -1.03682  -0.90251
 Alpha  occ. eigenvalues --   -0.59449  -0.56285  -0.53907  -0.44666  -0.38865
 Alpha  occ. eigenvalues --   -0.38568
 Alpha virt. eigenvalues --    0.03815   0.07763   0.08572   0.10143   0.11066
 Alpha virt. eigenvalues --    0.11544   0.15439   0.15832   0.16090   0.20106
 Alpha virt. eigenvalues --    0.20233   0.25555   0.32905   0.34161   0.35438

 Mulliken charges:
               1
     1  C   -0.086654
     2  C   -0.002123
     3  N   -0.213580
     4  H    0.097194
     5  H    0.104924
     6  H    0.100239
 Sum of Mulliken charges =   0.00000

 Dipole moment (field-independent basis, Debye):
    X=              4.1268    Y=              0.0095    Z=              0.0115  Tot=              4.1268
 Quadrupole moment (field-independent basis, Debye-Ang):
   XX=            -21.1965   YY=            -17.5832   ZZ=            -17.7439
   XY=             -0.1186   XZ=              0.0217   YZ=             -0.0440

 Normal termination of Gaussian 09 at Wed Aug 26 12:14:38 2020.
