 Gaussian 09, Revision D.01,
 Gaussian 09:  ES64L-G09RevD.01 24-Apr-2013

 --------------------
 #p B2PLYPD3/Def2QZVP
 --------------------

 ------------
 cyanomethane
 ------------
 Symbolic Z-matrix:
 Charge =  0 Multiplicity = 1

                         Standard orientation:
 ---------------------------------------------------------------------
 Center     Atomic      Atomic             Coordinates (Angstroms)
 Number     Number       Type             X           Y           Z
 ---------------------------------------------------------------------
      1          6           0        1.201318    0.003115   -0.038813
      2          6           0       -0.256298    0.035217    0.063396
      3          7           0       -1.453826   -0.018734   -0.019519
      4          1           0        1.619526   -0.445963    0.965773
      5          1           0        1.479554    1.037921   -0.149935
      6          1           0        1.407580   -0.690807   -0.826700
 ---------------------------------------------------------------------

 SCF Done:  E(RB2PLYPD3) =  -132.518055892     A.U. after   12 cycles
 E2(B2PLYPD3) =    -0.1851923914D+00 E(B2PLYPD3) =    -0.13270324828313D+03

 The electronic state is 1-A.
 Alpha  occ. eigenvalues --  -14.85305 -10.68013 -10.67452  -1.02200  -0.89224
 Alpha  occ. eigenvalues --   -0.58421  -0.56236  -0.52510  -0.44688  -0.37965
 Alpha  occ. eigenvalues --   -0.37610
 Alpha virt. eigenvalues --    0.03441   0.06391   0.07542   0.10021   0.10644
 Alpha virt. eigenvalues --    0.11171   0.14767   0.15523   0.15711   0.20219
 Alpha virt. eigenvalues --    0.20321   0.25468   0.31203   0.33405   0.35090

 Mulliken charges:
               1
     1  C   -0.107411
     2  C    0.005982
     3  N   -0.228082
     4  H    0.096253
     5  H    0.115145
     6  H    0.118113
 Sum of Mulliken charges =   0.00000

 Dipole moment (field-independent basis, Debye):
    X=              4.1464    Y=              0.0065    Z=              0.0087  Tot=              4.1464
 Quadrupole moment (field-independent basis, Debye-Ang):
   XX=            -21.5476   YY=            -17.6468   ZZ=            -17.9687
   XY=             -0.1190   XZ=              0.0806   YZ=              0.0751

 Normal termination of Gaussian 09 at Wed Aug 26 22:53:28 2020.
