 Gaussian 09, Revision D.01,
 Gaussian 09:  ES64L-G09RevD.01 24-Apr-2013

 --------------------
 #p B2PLYPD3/Def2QZVP
 --------------------

 ------------
 cyanomethane
 ------------
 Symbolic Z-matrix:
 Charge =  0 Multiplicity = 1

                         Standard orientation:
 ---------------------------------------------------------------------
 Center     Atomic      Atomic             Coordinates (Angstroms)
 Number     Number       Type             X           Y           Z
 ---------------------------------------------------------------------
      1          6           0       -1.176606   -0.011913    0.006008
      2          6           0        0.274847    0.024570   -0.004711
      3          7           0        1.440084   -0.012961    0.000128
      4          1           0       -1.539441    1.016810   -0.077165
      5          1           0       -1.543552   -0.434616    0.892063
      6          1           0       -1.587039   -0.567409   -0.823573
 ---------------------------------------------------------------------

 SCF Done:  E(RB2PLYPD3) =  -132.533206884     A.U. after   11 cycles
 E2(B2PLYPD3) =    -0.1813013784D+00 E(B2PLYPD3) =    -0.13271450826252D+03

 The electronic state is 1-A.
 Alpha  occ. eigenvalues --  -14.84554 -10.66645 -10.66589  -1.03715  -0.89679
 Alpha  occ. eigenvalues --   -0.60426  -0.54577  -0.53715  -0.44885  -0.38900
 Alpha  occ. eigenvalues --   -0.38754
 Alpha virt. eigenvalues --    0.03814   0.07647   0.07912   0.10117   0.11308
 Alpha virt. eigenvalues --    0.11394   0.15481   0.16048   0.16775   0.20119
 Alpha virt. eigenvalues --    0.20177   0.25494   0.32723   0.34485   0.35236

 Mulliken charges:
               1
     1  C   -0.072565
     2  C    0.001766
     3  N   -0.211613
     4  H    0.092395
     5  H    0.096762
     6  H    0.093255
 Sum of Mulliken charges =   0.00000

 Dipole moment (field-independent basis, Debye):
    X=             -4.1516    Y=              0.0146    Z=              0.0030  Tot=              4.1516
 Quadrupole moment (field-independent basis, Debye-Ang):
   XX=            -20.8778   YY=            -17.7771   ZZ=            -17.8113
   XY=              0.0980   XZ=              0.0238   YZ=             -0.0218

 Normal termination of Gaussian 09 at Wed Aug 26 09:47:28 2020.
