 Gaussian 09, Revision D.01,
 Gaussian 09:  ES64L-G09RevD.01 24-Apr-2013

 --------------------
 #p B2PLYPD3/Def2QZVP
 --------------------

 ------------
 cyanomethane
 ------------
 Symbolic Z-matrix:
 Charge =  0 Multiplicity = 1

                         Standard orientation:
 ---------------------------------------------------------------------
 Center     Atomic      Atomic             Coordinates (Angstroms)
 Number     Number       Type             X           Y           Z
 ---------------------------------------------------------------------
      1          6           0       -1.171973    0.028106    0.001209
      2          6           0        0.255016   -0.077753   -0.033148
      3          7           0        1.427274    0.041527    0.015227
      4          1           0       -1.460869   -0.272923    1.026270
      5          1           0       -1.472317   -0.730680   -0.695609
      6          1           0       -1.555985    1.010797   -0.245618
 ---------------------------------------------------------------------

 SCF Done:  E(RB2PLYPD3) =  -132.526292707     A.U. after   13 cycles
 E2(B2PLYPD3) =    -0.1829178514D+00 E(B2PLYPD3) =    -0.13270921055859D+03

 The electronic state is 1-A.
 Alpha  occ. eigenvalues --  -14.84714 -10.66908 -10.66666  -1.03198  -0.89983
 Alpha  occ. eigenvalues --   -0.59527  -0.54870  -0.54200  -0.44768  -0.38308
 Alpha  occ. eigenvalues --   -0.38120
 Alpha virt. eigenvalues --    0.03512   0.06957   0.08068   0.09814   0.11208
 Alpha virt. eigenvalues --    0.11409   0.14877   0.15556   0.16855   0.20132
 Alpha virt. eigenvalues --    0.20330   0.26188   0.32996   0.33913   0.34792

 Mulliken charges:
               1
     1  C   -0.098373
     2  C    0.006215
     3  N   -0.219780
     4  H    0.102443
     5  H    0.102265
     6  H    0.107229
 Sum of Mulliken charges =   0.00000

 Dipole moment (field-independent basis, Debye):
    X=             -4.0979    Y=             -0.0613    Z=             -0.0131  Tot=              4.0984
 Quadrupole moment (field-independent basis, Debye-Ang):
   XX=            -21.3376   YY=            -17.6499   ZZ=            -17.7702
   XY=             -0.2464   XZ=             -0.0552   YZ=             -0.0146

 Normal termination of Gaussian 09 at Wed Aug 26 18:53:07 2020.
