 Gaussian 09, Revision D.01,
 Gaussian 09:  ES64L-G09RevD.01 24-Apr-2013

 --------------------
 #p B2PLYPD3/Def2QZVP
 --------------------

 ------------
 cyanomethane
 ------------
 Symbolic Z-matrix:
 Charge =  0 Multiplicity = 1

                         Standard orientation:
 ---------------------------------------------------------------------
 Center     Atomic      Atomic             Coordinates (Angstroms)
 Number     Number       Type             X           Y           Z
 ---------------------------------------------------------------------
      1          6           0        1.174831   -0.001528   -0.011136
      2          6           0       -0.279690   -0.010562    0.001454
      3          7           0       -1.438396    0.006710    0.000726
      4          1           0        1.553112   -0.841713   -0.565383
      5          1           0        1.568302   -0.073569    1.042718
      6          1           0        1.576509    0.940850   -0.424322
 ---------------------------------------------------------------------

 SCF Done:  E(RB2PLYPD3) =  -132.533845408     A.U. after   11 cycles
 E2(B2PLYPD3) =    -0.1810399120D+00 E(B2PLYPD3) =    -0.13271488532014D+03

 The electronic state is 1-A.
 Alpha  occ. eigenvalues --  -14.84376 -10.67491 -10.66450  -1.03986  -0.88967
 Alpha  occ. eigenvalues --   -0.59915  -0.54208  -0.52802  -0.44867  -0.39053
 Alpha  occ. eigenvalues --   -0.38835
 Alpha virt. eigenvalues --    0.03670   0.07377   0.07836   0.10154   0.11336
 Alpha virt. eigenvalues --    0.11605   0.15407   0.16223   0.16629   0.20066
 Alpha virt. eigenvalues --    0.20139   0.25400   0.32553   0.33964   0.34908

 Mulliken charges:
               1
     1  C   -0.083533
     2  C    0.000842
     3  N   -0.207310
     4  H    0.099879
     5  H    0.092914
     6  H    0.097208
 Sum of Mulliken charges =   0.00000

 Dipole moment (field-independent basis, Debye):
    X=              4.1330    Y=             -0.0098    Z=              0.0030  Tot=              4.1330
 Quadrupole moment (field-independent basis, Debye-Ang):
   XX=            -20.9599   YY=            -17.7572   ZZ=            -17.8535
   XY=              0.0545   XZ=              0.0239   YZ=              0.0317

 Normal termination of Gaussian 09 at Wed Aug 26 15:34:23 2020.
