 Gaussian 09, Revision D.01,
 Gaussian 09:  ES64L-G09RevD.01 24-Apr-2013

 --------------------
 #p B2PLYPD3/Def2QZVP
 --------------------

 ------------
 cyanomethane
 ------------
 Symbolic Z-matrix:
 Charge =  0 Multiplicity = 1

                         Standard orientation:
 ---------------------------------------------------------------------
 Center     Atomic      Atomic             Coordinates (Angstroms)
 Number     Number       Type             X           Y           Z
 ---------------------------------------------------------------------
      1          6           0        1.173885   -0.003723   -0.011389
      2          6           0       -0.275726    0.013372   -0.035690
      3          7           0       -1.427070   -0.008183    0.023946
      4          1           0        1.593136   -0.054732    0.996368
      5          1           0        1.488183    0.915560   -0.394408
      6          1           0        1.519221   -0.861445   -0.487109
 ---------------------------------------------------------------------

 SCF Done:  E(RB2PLYPD3) =  -132.530618421     A.U. after   11 cycles
 E2(B2PLYPD3) =    -0.1800874225D+00 E(B2PLYPD3) =    -0.13271070584333D+03

 The electronic state is 1-A.
 Alpha  occ. eigenvalues --  -14.84106 -10.66126 -10.66064  -1.04190  -0.90118
 Alpha  occ. eigenvalues --   -0.60180  -0.56440  -0.52880  -0.44765  -0.39284
 Alpha  occ. eigenvalues --   -0.38885
 Alpha virt. eigenvalues --    0.03827   0.07751   0.08772   0.10141   0.11134
 Alpha virt. eigenvalues --    0.11734   0.15504   0.16138   0.16679   0.19995
 Alpha virt. eigenvalues --    0.20196   0.25544   0.33106   0.34257   0.35864

 Mulliken charges:
               1
     1  C   -0.072778
     2  C   -0.001551
     3  N   -0.206587
     4  H    0.084866
     5  H    0.097956
     6  H    0.098095
 Sum of Mulliken charges =   0.00000

 Dipole moment (field-independent basis, Debye):
    X=              4.1246    Y=              0.0113    Z=             -0.0044  Tot=              4.1247
 Quadrupole moment (field-independent basis, Debye-Ang):
   XX=            -20.9229   YY=            -17.4826   ZZ=            -17.9231
   XY=             -0.0746   XZ=              0.2819   YZ=              0.0161

 Normal termination of Gaussian 09 at Wed Aug 26 13:07:04 2020.
