 Gaussian 09, Revision D.01,
 Gaussian 09:  ES64L-G09RevD.01 24-Apr-2013

 --------------------
 #p B2PLYPD3/Def2QZVP
 --------------------

 ------------
 cyanomethane
 ------------
 Symbolic Z-matrix:
 Charge =  0 Multiplicity = 1

                         Standard orientation:
 ---------------------------------------------------------------------
 Center     Atomic      Atomic             Coordinates (Angstroms)
 Number     Number       Type             X           Y           Z
 ---------------------------------------------------------------------
      1          6           0       -1.169049   -0.001870    0.010165
      2          6           0        0.288283   -0.048664   -0.031598
      3          7           0        1.448202    0.034476    0.017996
      4          1           0       -1.651583   -0.003847    0.974645
      5          1           0       -1.498022   -0.842398   -0.498712
      6          1           0       -1.703219    0.908118   -0.473309
 ---------------------------------------------------------------------

 SCF Done:  E(RB2PLYPD3) =  -132.523372966     A.U. after   12 cycles
 E2(B2PLYPD3) =    -0.1818297812D+00 E(B2PLYPD3) =    -0.13270520274760D+03

 The electronic state is 1-A.
 Alpha  occ. eigenvalues --  -14.84833 -10.67105 -10.66921  -1.03989  -0.89147
 Alpha  occ. eigenvalues --   -0.61280  -0.54427  -0.51409  -0.45173  -0.39105
 Alpha  occ. eigenvalues --   -0.38854
 Alpha virt. eigenvalues --    0.03397   0.06549   0.08140   0.09885   0.11243
 Alpha virt. eigenvalues --    0.11758   0.15433   0.16235   0.17826   0.19898
 Alpha virt. eigenvalues --    0.20528   0.25600   0.32375   0.34052   0.35120

 Mulliken charges:
               1
     1  C   -0.064418
     2  C    0.009680
     3  N   -0.207480
     4  H    0.087695
     5  H    0.092383
     6  H    0.082140
 Sum of Mulliken charges =   0.00000

 Dipole moment (field-independent basis, Debye):
    X=             -4.1450    Y=             -0.0765    Z=             -0.0089  Tot=              4.1457
 Quadrupole moment (field-independent basis, Debye-Ang):
   XX=            -20.4812   YY=            -17.8990   ZZ=            -18.0362
   XY=             -0.2765   XZ=             -0.1744   YZ=              0.0909

 Normal termination of Gaussian 09 at Wed Aug 26 23:47:07 2020.
