 Gaussian 09, Revision D.01,
 Gaussian 09:  ES64L-G09RevD.01 24-Apr-2013

 --------------------
 #p B2PLYPD3/Def2QZVP
 --------------------

 ------------
 cyanomethane
 ------------
 Symbolic Z-matrix:
 Charge =  0 Multiplicity = 1

                         Standard orientation:
 ---------------------------------------------------------------------
 Center     Atomic      Atomic             Coordinates (Angstroms)
 Number     Number       Type             X           Y           Z
 ---------------------------------------------------------------------
      1          6           0       -1.177379    0.004696   -0.004149
      2          6           0        0.285254   -0.009033   -0.011185
      3          7           0        1.433467    0.003926    0.003693
      4          1           0       -1.558768    1.026577   -0.053470
      5          1           0       -1.529143   -0.447602    0.931477
      6          1           0       -1.593610   -0.580434   -0.811861
 ---------------------------------------------------------------------

 SCF Done:  E(RB2PLYPD3) =  -132.535902003     A.U. after   11 cycles
 E2(B2PLYPD3) =    -0.1799537965D+00 E(B2PLYPD3) =    -0.13271585579969D+03

 The electronic state is 1-A.
 Alpha  occ. eigenvalues --  -14.84057 -10.67159 -10.66136  -1.04371  -0.89056
 Alpha  occ. eigenvalues --   -0.59799  -0.54021  -0.53443  -0.44794  -0.39320
 Alpha  occ. eigenvalues --   -0.39181
 Alpha virt. eigenvalues --    0.03756   0.07972   0.08050   0.10206   0.11438
 Alpha virt. eigenvalues --    0.11604   0.15396   0.16230   0.16728   0.20035
 Alpha virt. eigenvalues --    0.20077   0.25267   0.32751   0.34380   0.34965

 Mulliken charges:
               1
     1  C   -0.081736
     2  C   -0.001962
     3  N   -0.202601
     4  H    0.096937
     5  H    0.094022
     6  H    0.095340
 Sum of Mulliken charges =   0.00000

 Dipole moment (field-independent basis, Debye):
    X=             -4.1246    Y=             -0.0152    Z=              0.0045  Tot=              4.1246
 Quadrupole moment (field-independent basis, Debye-Ang):
   XX=            -20.9298   YY=            -17.7043   ZZ=            -17.8105
   XY=              0.0074   XZ=             -0.0010   YZ=              0.0140

 Normal termination of Gaussian 09 at Wed Aug 26 23:58:44 2020.
