 Gaussian 09, Revision D.01,
 Gaussian 09:  ES64L-G09RevD.01 24-Apr-2013

 --------------------
 #p B2PLYPD3/Def2QZVP
 --------------------

 ------------
 cyanomethane
 ------------
 Symbolic Z-matrix:
 Charge =  0 Multiplicity = 1

                         Standard orientation:
 ---------------------------------------------------------------------
 Center     Atomic      Atomic             Coordinates (Angstroms)
 Number     Number       Type             X           Y           Z
 ---------------------------------------------------------------------
      1          6           0       -1.166351    0.025274    0.021279
      2          6           0        0.255916   -0.074533   -0.031032
      3          7           0        1.424396    0.034997    0.011356
      4          1           0       -1.531298   -0.839361   -0.576581
      5          1           0       -1.506709    0.946248   -0.471356
      6          1           0       -1.470149   -0.056309    1.026961
 ---------------------------------------------------------------------

 SCF Done:  E(RB2PLYPD3) =  -132.528521909     A.U. after   12 cycles
 E2(B2PLYPD3) =    -0.1823709189D+00 E(B2PLYPD3) =    -0.13271089282827D+03

 The electronic state is 1-A.
 Alpha  occ. eigenvalues --  -14.84584 -10.66852 -10.66505  -1.03399  -0.89976
 Alpha  occ. eigenvalues --   -0.59565  -0.55496  -0.53654  -0.44775  -0.38507
 Alpha  occ. eigenvalues --   -0.38167
 Alpha virt. eigenvalues --    0.03613   0.07261   0.07752   0.09924   0.11247
 Alpha virt. eigenvalues --    0.11446   0.15154   0.15604   0.16694   0.20132
 Alpha virt. eigenvalues --    0.20231   0.26237   0.32614   0.34079   0.35109

 Mulliken charges:
               1
     1  C   -0.094859
     2  C    0.005228
     3  N   -0.217650
     4  H    0.095175
     5  H    0.104427
     6  H    0.107679
 Sum of Mulliken charges =   0.00000

 Dipole moment (field-independent basis, Debye):
    X=             -4.0964    Y=             -0.0465    Z=             -0.0193  Tot=              4.0967
 Quadrupole moment (field-independent basis, Debye-Ang):
   XX=            -21.2908   YY=            -17.7564   ZZ=            -17.6468
   XY=             -0.1480   XZ=              0.0050   YZ=             -0.0562

 Normal termination of Gaussian 09 at Wed Aug 26 22:54:23 2020.
