 Gaussian 09, Revision D.01,
 Gaussian 09:  ES64L-G09RevD.01 24-Apr-2013

 --------------------
 #p B2PLYPD3/Def2QZVP
 --------------------

 ------------
 cyanomethane
 ------------
 Symbolic Z-matrix:
 Charge =  0 Multiplicity = 1

                         Standard orientation:
 ---------------------------------------------------------------------
 Center     Atomic      Atomic             Coordinates (Angstroms)
 Number     Number       Type             X           Y           Z
 ---------------------------------------------------------------------
      1          6           0        1.190533   -0.002020   -0.005322
      2          6           0       -0.276069   -0.021299    0.021977
      3          7           0       -1.439951    0.015925   -0.005978
      4          1           0        1.439279   -0.799994   -0.627386
      5          1           0        1.590985   -0.120560    0.971202
      6          1           0        1.562603    0.948993   -0.401906
 ---------------------------------------------------------------------

 SCF Done:  E(RB2PLYPD3) =  -132.531752675     A.U. after   12 cycles
 E2(B2PLYPD3) =    -0.1811179833D+00 E(B2PLYPD3) =    -0.13271287065835D+03

 The electronic state is 1-A.
 Alpha  occ. eigenvalues --  -14.84419 -10.66594 -10.66509  -1.03657  -0.89740
 Alpha  occ. eigenvalues --   -0.59542  -0.55422  -0.53821  -0.44732  -0.38899
 Alpha  occ. eigenvalues --   -0.38813
 Alpha virt. eigenvalues --    0.03794   0.07728   0.08518   0.10199   0.11125
 Alpha virt. eigenvalues --    0.11332   0.15232   0.15805   0.16529   0.20122
 Alpha virt. eigenvalues --    0.20172   0.25187   0.32616   0.34606   0.35258

 Mulliken charges:
               1
     1  C   -0.083069
     2  C   -0.001601
     3  N   -0.212173
     4  H    0.103498
     5  H    0.096518
     6  H    0.096827
 Sum of Mulliken charges =   0.00000

 Dipole moment (field-independent basis, Debye):
    X=              4.1479    Y=             -0.0255    Z=              0.0092  Tot=              4.1480
 Quadrupole moment (field-independent basis, Debye-Ang):
   XX=            -21.0476   YY=            -17.7048   ZZ=            -17.7693
   XY=              0.1616   XZ=              0.0636   YZ=              0.0522

 Normal termination of Gaussian 09 at Wed Aug 26 10:03:42 2020.
