 Gaussian 09, Revision D.01,
 Gaussian 09:  ES64L-G09RevD.01 24-Apr-2013

 --------------------
 #p B2PLYPD3/Def2QZVP
 --------------------

 ------------
 cyanomethane
 ------------
 Symbolic Z-matrix:
 Charge =  0 Multiplicity = 1

                         Standard orientation:
 ---------------------------------------------------------------------
 Center     Atomic      Atomic             Coordinates (Angstroms)
 Number     Number       Type             X           Y           Z
 ---------------------------------------------------------------------
      1          6           0       -1.190285    0.028467   -0.008198
      2          6           0        0.272504   -0.013740    0.028836
      3          7           0        1.448381    0.004607   -0.015960
      4          1           0       -1.519108   -0.231133    0.998659
      5          1           0       -1.556415   -0.886510   -0.659863
      6          1           0       -1.556464    0.997028   -0.350903
 ---------------------------------------------------------------------

 SCF Done:  E(RB2PLYPD3) =  -132.525456125     A.U. after   12 cycles
 E2(B2PLYPD3) =    -0.1830030751D+00 E(B2PLYPD3) =    -0.13270845919970D+03

 The electronic state is 1-A.
 Alpha  occ. eigenvalues --  -14.84778 -10.68261 -10.66918  -1.03181  -0.88671
 Alpha  occ. eigenvalues --   -0.59021  -0.54936  -0.52015  -0.44788  -0.38649
 Alpha  occ. eigenvalues --   -0.38182
 Alpha virt. eigenvalues --    0.03395   0.06869   0.07638   0.10061   0.11008
 Alpha virt. eigenvalues --    0.11477   0.15032   0.15354   0.16796   0.20103
 Alpha virt. eigenvalues --    0.20268   0.25272   0.31714   0.33056   0.34947

 Mulliken charges:
               1
     1  C   -0.101237
     2  C    0.004457
     3  N   -0.216188
     4  H    0.102174
     5  H    0.097741
     6  H    0.113054
 Sum of Mulliken charges =   0.00000

 Dipole moment (field-independent basis, Debye):
    X=             -4.1437    Y=             -0.0221    Z=              0.0590  Tot=              4.1442
 Quadrupole moment (field-independent basis, Debye-Ang):
   XX=            -21.2784   YY=            -17.6004   ZZ=            -18.0352
   XY=              0.0247   XZ=              0.0202   YZ=             -0.0983

 Normal termination of Gaussian 09 at Wed Aug 26 23:47:26 2020.
