 Gaussian 09, Revision D.01,
 Gaussian 09:  ES64L-G09RevD.01 24-Apr-2013

 --------------------
 #p B2PLYPD3/Def2QZVP
 --------------------

 ------------
 cyanomethane
 ------------
 Symbolic Z-matrix:
 Charge =  0 Multiplicity = 1

                         Standard orientation:
 ---------------------------------------------------------------------
 Center     Atomic      Atomic             Coordinates (Angstroms)
 Number     Number       Type             X           Y           Z
 ---------------------------------------------------------------------
      1          6           0       -1.175052    0.004319   -0.003591
      2          6           0        0.288198   -0.019989    0.002036
      3          7           0        1.434323    0.009450   -0.000586
      4          1           0       -1.564168    0.977296   -0.350446
      5          1           0       -1.575740   -0.166032    1.017110
      6          1           0       -1.579229   -0.783398   -0.653228
 ---------------------------------------------------------------------

 SCF Done:  E(RB2PLYPD3) =  -132.535301593     A.U. after   11 cycles
 E2(B2PLYPD3) =    -0.1800009716D+00 E(B2PLYPD3) =    -0.13271530256449D+03

 The electronic state is 1-A.
 Alpha  occ. eigenvalues --  -14.84059 -10.67571 -10.66140  -1.04477  -0.88683
 Alpha  occ. eigenvalues --   -0.59763  -0.53492  -0.53134  -0.44835  -0.39323
 Alpha  occ. eigenvalues --   -0.39263
 Alpha virt. eigenvalues --    0.03679   0.07744   0.07914   0.10189   0.11536
 Alpha virt. eigenvalues --    0.11621   0.15393   0.16406   0.16700   0.20018
 Alpha virt. eigenvalues --    0.20053   0.25283   0.32654   0.34360   0.34609

 Mulliken charges:
               1
     1  C   -0.084020
     2  C   -0.001184
     3  N   -0.200722
     4  H    0.096419
     5  H    0.093976
     6  H    0.095532
 Sum of Mulliken charges =   0.00000

 Dipole moment (field-independent basis, Debye):
    X=             -4.1165    Y=             -0.0138    Z=              0.0031  Tot=              4.1165
 Quadrupole moment (field-independent basis, Debye-Ang):
   XX=            -20.9134   YY=            -17.7657   ZZ=            -17.8055
   XY=             -0.0440   XZ=             -0.0051   YZ=              0.0067

 Normal termination of Gaussian 09 at Thu Aug 27 00:01:12 2020.
