 Gaussian 09, Revision D.01,
 Gaussian 09:  ES64L-G09RevD.01 24-Apr-2013

 --------------------
 #p B2PLYPD3/Def2QZVP
 --------------------

 ------------
 cyanomethane
 ------------
 Symbolic Z-matrix:
 Charge =  0 Multiplicity = 1

                         Standard orientation:
 ---------------------------------------------------------------------
 Center     Atomic      Atomic             Coordinates (Angstroms)
 Number     Number       Type             X           Y           Z
 ---------------------------------------------------------------------
      1          6           0       -1.181804   -0.002808    0.009834
      2          6           0        0.280206    0.012768   -0.002073
      3          7           0        1.427567   -0.005384    0.000347
      4          1           0       -1.528153   -0.226922    0.995606
      5          1           0       -1.515502   -0.781104   -0.710896
      6          1           0       -1.539731    0.985956   -0.333708
 ---------------------------------------------------------------------

 SCF Done:  E(RB2PLYPD3) =  -132.535071657     A.U. after   11 cycles
 E2(B2PLYPD3) =    -0.1799131806D+00 E(B2PLYPD3) =    -0.13271498483716D+03

 The electronic state is 1-A.
 Alpha  occ. eigenvalues --  -14.83881 -10.67364 -10.65940  -1.04317  -0.89076
 Alpha  occ. eigenvalues --   -0.58980  -0.54540  -0.53534  -0.44643  -0.39251
 Alpha  occ. eigenvalues --   -0.39080
 Alpha virt. eigenvalues --    0.03729   0.07973   0.08242   0.10194   0.11434
 Alpha virt. eigenvalues --    0.11621   0.15312   0.15983   0.16294   0.20050
 Alpha virt. eigenvalues --    0.20093   0.25238   0.32674   0.34030   0.34882

 Mulliken charges:
               1
     1  C   -0.096686
     2  C   -0.004225
     3  N   -0.203260
     4  H    0.104133
     5  H    0.099969
     6  H    0.100069
 Sum of Mulliken charges =   0.00000

 Dipole moment (field-independent basis, Debye):
    X=             -4.1030    Y=              0.0044    Z=             -0.0017  Tot=              4.1030
 Quadrupole moment (field-independent basis, Debye-Ang):
   XX=            -21.2066   YY=            -17.6955   ZZ=            -17.6624
   XY=              0.0205   XZ=             -0.0022   YZ=             -0.0222

 Normal termination of Gaussian 09 at Wed Aug 26 13:38:35 2020.
