 Gaussian 09, Revision D.01,
 Gaussian 09:  ES64L-G09RevD.01 24-Apr-2013

 --------------------
 #p B2PLYPD3/Def2QZVP
 --------------------

 ------------
 cyanomethane
 ------------
 Symbolic Z-matrix:
 Charge =  0 Multiplicity = 1

                         Standard orientation:
 ---------------------------------------------------------------------
 Center     Atomic      Atomic             Coordinates (Angstroms)
 Number     Number       Type             X           Y           Z
 ---------------------------------------------------------------------
      1          6           0       -1.168848   -0.001908   -0.010032
      2          6           0        0.274665    0.004227    0.039154
      3          7           0        1.446211   -0.005955   -0.018020
      4          1           0       -1.528931    1.018712   -0.202161
      5          1           0       -1.622684   -0.331250    0.929828
      6          1           0       -1.606762   -0.659689   -0.776262
 ---------------------------------------------------------------------

 SCF Done:  E(RB2PLYPD3) =  -132.531667700     A.U. after   12 cycles
 E2(B2PLYPD3) =    -0.1823545607D+00 E(B2PLYPD3) =    -0.13271402226031D+03

 The electronic state is 1-A.
 Alpha  occ. eigenvalues --  -14.84879 -10.67283 -10.66945  -1.03528  -0.89192
 Alpha  occ. eigenvalues --   -0.60812  -0.53631  -0.53050  -0.45045  -0.38646
 Alpha  occ. eigenvalues --   -0.38622
 Alpha virt. eigenvalues --    0.03644   0.06977   0.07398   0.10073   0.11328
 Alpha virt. eigenvalues --    0.11477   0.15476   0.16228   0.16953   0.20128
 Alpha virt. eigenvalues --    0.20220   0.25694   0.32594   0.34443   0.34578

 Mulliken charges:
               1
     1  C   -0.071205
     2  C    0.005957
     3  N   -0.213026
     4  H    0.094386
     5  H    0.090293
     6  H    0.093595
 Sum of Mulliken charges =   0.00000

 Dipole moment (field-independent basis, Debye):
    X=             -4.1593    Y=              0.0074    Z=              0.0262  Tot=              4.1594
 Quadrupole moment (field-independent basis, Debye-Ang):
   XX=            -20.7648   YY=            -17.8410   ZZ=            -17.9615
   XY=              0.1026   XZ=              0.0634   YZ=             -0.0032

 Normal termination of Gaussian 09 at Wed Aug 26 14:40:24 2020.
