 Gaussian 09, Revision D.01,
 Gaussian 09:  ES64L-G09RevD.01 24-Apr-2013

 --------------------
 #p B2PLYPD3/Def2QZVP
 --------------------

 ------------
 cyanomethane
 ------------
 Symbolic Z-matrix:
 Charge =  0 Multiplicity = 1

                         Standard orientation:
 ---------------------------------------------------------------------
 Center     Atomic      Atomic             Coordinates (Angstroms)
 Number     Number       Type             X           Y           Z
 ---------------------------------------------------------------------
      1          6           0       -1.181598    0.006851   -0.012230
      2          6           0        0.277125    0.012638    0.008930
      3          7           0        1.446759   -0.012285   -0.000715
      4          1           0       -1.502970    1.067484    0.012938
      5          1           0       -1.630437   -0.553479    0.887901
      6          1           0       -1.567060   -0.544942   -0.876034
 ---------------------------------------------------------------------

 SCF Done:  E(RB2PLYPD3) =  -132.529539118     A.U. after   12 cycles
 E2(B2PLYPD3) =    -0.1822958364D+00 E(B2PLYPD3) =    -0.13271183495466D+03

 The electronic state is 1-A.
 Alpha  occ. eigenvalues --  -14.84687 -10.68080 -10.66803  -1.03528  -0.88635
 Alpha  occ. eigenvalues --   -0.59640  -0.54335  -0.52083  -0.44881  -0.38771
 Alpha  occ. eigenvalues --   -0.38514
 Alpha virt. eigenvalues --    0.03541   0.06857   0.07604   0.10122   0.11144
 Alpha virt. eigenvalues --    0.11584   0.15180   0.16205   0.16431   0.20061
 Alpha virt. eigenvalues --    0.20228   0.25306   0.32113   0.33647   0.34619

 Mulliken charges:
               1
     1  C   -0.090956
     2  C    0.003142
     3  N   -0.212033
     4  H    0.104820
     5  H    0.093254
     6  H    0.101773
 Sum of Mulliken charges =   0.00000

 Dipole moment (field-independent basis, Debye):
    X=             -4.1432    Y=             -0.0029    Z=             -0.0059  Tot=              4.1432
 Quadrupole moment (field-independent basis, Debye-Ang):
   XX=            -21.0679   YY=            -17.6788   ZZ=            -18.0231
   XY=              0.2089   XZ=             -0.0330   YZ=              0.0554

 Normal termination of Gaussian 09 at Wed Aug 26 10:44:00 2020.
