 Gaussian 09, Revision D.01,
 Gaussian 09:  ES64L-G09RevD.01 24-Apr-2013

 --------------------
 #p B2PLYPD3/Def2QZVP
 --------------------

 ------------
 cyanomethane
 ------------
 Symbolic Z-matrix:
 Charge =  0 Multiplicity = 1

                         Standard orientation:
 ---------------------------------------------------------------------
 Center     Atomic      Atomic             Coordinates (Angstroms)
 Number     Number       Type             X           Y           Z
 ---------------------------------------------------------------------
      1          6           0        1.182965   -0.002690   -0.017405
      2          6           0       -0.267251    0.000094    0.044296
      3          7           0       -1.440702    0.000542   -0.018224
      4          1           0        1.571005   -0.014257    1.007548
      5          1           0        1.514042    0.933272   -0.505622
      6          1           0        1.505582   -0.907229   -0.535709
 ---------------------------------------------------------------------

 SCF Done:  E(RB2PLYPD3) =  -132.531796935     A.U. after   11 cycles
 E2(B2PLYPD3) =    -0.1824152082D+00 E(B2PLYPD3) =    -0.13271421214356D+03

 The electronic state is 1-A.
 Alpha  occ. eigenvalues --  -14.84679 -10.67437 -10.66746  -1.03274  -0.89286
 Alpha  occ. eigenvalues --   -0.59301  -0.54599  -0.53614  -0.44774  -0.38537
 Alpha  occ. eigenvalues --   -0.38398
 Alpha virt. eigenvalues --    0.03633   0.07436   0.07573   0.10114   0.11199
 Alpha virt. eigenvalues --    0.11291   0.15198   0.15724   0.16346   0.20174
 Alpha virt. eigenvalues --    0.20189   0.25533   0.32487   0.34034   0.34641

 Mulliken charges:
               1
     1  C   -0.093527
     2  C    0.002009
     3  N   -0.216377
     4  H    0.097665
     5  H    0.104304
     6  H    0.105926
 Sum of Mulliken charges =   0.00000

 Dipole moment (field-independent basis, Debye):
    X=              4.1397    Y=             -0.0008    Z=              0.0375  Tot=              4.1399
 Quadrupole moment (field-independent basis, Debye-Ang):
   XX=            -21.2170   YY=            -17.6549   ZZ=            -17.8849
   XY=              0.0093   XZ=              0.0031   YZ=              0.0142

 Normal termination of Gaussian 09 at Wed Aug 26 13:24:22 2020.
