 Gaussian 09, Revision D.01,
 Gaussian 09:  ES64L-G09RevD.01 24-Apr-2013

 --------------------
 #p B2PLYPD3/Def2QZVP
 --------------------

 ------------
 cyanomethane
 ------------
 Symbolic Z-matrix:
 Charge =  0 Multiplicity = 1

                         Standard orientation:
 ---------------------------------------------------------------------
 Center     Atomic      Atomic             Coordinates (Angstroms)
 Number     Number       Type             X           Y           Z
 ---------------------------------------------------------------------
      1          6           0       -1.194310    0.012967    0.004847
      2          6           0        0.281701    0.017352    0.014166
      3          7           0        1.440497   -0.005092   -0.006471
      4          1           0       -1.531237   -0.392065    0.941295
      5          1           0       -1.475227   -0.727844   -0.793668
      6          1           0       -1.601360    0.973638   -0.216406
 ---------------------------------------------------------------------

 SCF Done:  E(RB2PLYPD3) =  -132.532980305     A.U. after   12 cycles
 E2(B2PLYPD3) =    -0.1808926939D+00 E(B2PLYPD3) =    -0.13271387299926D+03

 The electronic state is 1-A.
 Alpha  occ. eigenvalues --  -14.84254 -10.67366 -10.66406  -1.03836  -0.89038
 Alpha  occ. eigenvalues --   -0.59147  -0.55018  -0.53125  -0.44687  -0.39138
 Alpha  occ. eigenvalues --   -0.38775
 Alpha virt. eigenvalues --    0.03699   0.07897   0.08189   0.10210   0.11082
 Alpha virt. eigenvalues --    0.11539   0.15159   0.15665   0.16631   0.20054
 Alpha virt. eigenvalues --    0.20172   0.24959   0.32427   0.33616   0.35417

 Mulliken charges:
               1
     1  C   -0.093154
     2  C   -0.001588
     3  N   -0.209006
     4  H    0.101638
     5  H    0.097686
     6  H    0.104424
 Sum of Mulliken charges =   0.00000

 Dipole moment (field-independent basis, Debye):
    X=             -4.1401    Y=             -0.0144    Z=              0.0073  Tot=              4.1402
 Quadrupole moment (field-independent basis, Debye-Ang):
   XX=            -21.1461   YY=            -17.6693   ZZ=            -17.8164
   XY=             -0.0133   XZ=              0.0158   YZ=             -0.0621

 Normal termination of Gaussian 09 at Wed Aug 26 12:06:47 2020.
