 Gaussian 09, Revision D.01,
 Gaussian 09:  ES64L-G09RevD.01 24-Apr-2013

 --------------------
 #p B2PLYPD3/Def2QZVP
 --------------------

 ------------
 cyanomethane
 ------------
 Symbolic Z-matrix:
 Charge =  0 Multiplicity = 1

                         Standard orientation:
 ---------------------------------------------------------------------
 Center     Atomic      Atomic             Coordinates (Angstroms)
 Number     Number       Type             X           Y           Z
 ---------------------------------------------------------------------
      1          6           0        1.179738   -0.016481    0.000104
      2          6           0       -0.265686    0.013964   -0.023277
      3          7           0       -1.434869   -0.008476    0.007654
      4          1           0        1.489713    1.018835   -0.111341
      5          1           0        1.592725   -0.596143   -0.743844
      6          1           0        1.477329   -0.348256    0.940644
 ---------------------------------------------------------------------

 SCF Done:  E(RB2PLYPD3) =  -132.529722742     A.U. after   12 cycles
 E2(B2PLYPD3) =    -0.1813728560D+00 E(B2PLYPD3) =    -0.13271109559759D+03

 The electronic state is 1-A.
 Alpha  occ. eigenvalues --  -14.84503 -10.66565 -10.65943  -1.03512  -0.90433
 Alpha  occ. eigenvalues --   -0.60321  -0.55636  -0.54417  -0.44765  -0.38791
 Alpha  occ. eigenvalues --   -0.38530
 Alpha virt. eigenvalues --    0.03912   0.08043   0.08100   0.10127   0.11155
 Alpha virt. eigenvalues --    0.11398   0.15482   0.15646   0.16653   0.20173
 Alpha virt. eigenvalues --    0.20223   0.25564   0.32816   0.34462   0.35645

 Mulliken charges:
               1
     1  C   -0.075223
     2  C    0.000923
     3  N   -0.215737
     4  H    0.094123
     5  H    0.097494
     6  H    0.098419
 Sum of Mulliken charges =   0.00000

 Dipole moment (field-independent basis, Debye):
    X=              4.1547    Y=              0.0170    Z=              0.0050  Tot=              4.1547
 Quadrupole moment (field-independent basis, Debye-Ang):
   XX=            -21.0104   YY=            -17.7147   ZZ=            -17.7219
   XY=             -0.0806   XZ=             -0.0049   YZ=              0.0237

 Normal termination of Gaussian 09 at Wed Aug 26 15:54:51 2020.
