 Gaussian 09, Revision D.01,
 Gaussian 09:  ES64L-G09RevD.01 24-Apr-2013

 --------------------
 #p B2PLYPD3/Def2QZVP
 --------------------

 ------------
 cyanomethane
 ------------
 Symbolic Z-matrix:
 Charge =  0 Multiplicity = 1

                         Standard orientation:
 ---------------------------------------------------------------------
 Center     Atomic      Atomic             Coordinates (Angstroms)
 Number     Number       Type             X           Y           Z
 ---------------------------------------------------------------------
      1          6           0       -1.211131   -0.016906   -0.005630
      2          6           0        0.298131    0.059536   -0.023012
      3          7           0        1.439448   -0.027435    0.014626
      4          1           0       -1.558158   -0.085885    1.000903
      5          1           0       -1.491269   -0.912704   -0.523488
      6          1           0       -1.548706    0.934856   -0.407944
 ---------------------------------------------------------------------

 SCF Done:  E(RB2PLYPD3) =  -132.531730329     A.U. after   12 cycles
 E2(B2PLYPD3) =    -0.1796603279D+00 E(B2PLYPD3) =    -0.13271139065668D+03

 The electronic state is 1-A.
 Alpha  occ. eigenvalues --  -14.83882 -10.67260 -10.66016  -1.04322  -0.88705
 Alpha  occ. eigenvalues --   -0.58396  -0.55234  -0.53190  -0.44564  -0.39541
 Alpha  occ. eigenvalues --   -0.39352
 Alpha virt. eigenvalues --    0.03699   0.08353   0.08719   0.10162   0.11049
 Alpha virt. eigenvalues --    0.11444   0.15003   0.15785   0.16563   0.19896
 Alpha virt. eigenvalues --    0.20107   0.24603   0.32390   0.34293   0.35305

 Mulliken charges:
               1
     1  C   -0.092768
     2  C   -0.007653
     3  N   -0.201235
     4  H    0.095630
     5  H    0.105683
     6  H    0.100343
 Sum of Mulliken charges =   0.00000

 Dipole moment (field-independent basis, Debye):
    X=             -4.1205    Y=              0.0337    Z=              0.0183  Tot=              4.1207
 Quadrupole moment (field-independent basis, Debye-Ang):
   XX=            -21.1515   YY=            -17.4693   ZZ=            -17.9038
   XY=              0.1230   XZ=             -0.2187   YZ=              0.0340

 Normal termination of Gaussian 09 at Wed Aug 26 23:53:02 2020.
