 Gaussian 09, Revision D.01,
 Gaussian 09:  ES64L-G09RevD.01 24-Apr-2013

 --------------------
 #p B2PLYPD3/Def2QZVP
 --------------------

 ------------
 cyanomethane
 ------------
 Symbolic Z-matrix:
 Charge =  0 Multiplicity = 1

                         Standard orientation:
 ---------------------------------------------------------------------
 Center     Atomic      Atomic             Coordinates (Angstroms)
 Number     Number       Type             X           Y           Z
 ---------------------------------------------------------------------
      1          6           0       -1.202017    0.004674    0.025613
      2          6           0        0.293139    0.013935    0.019379
      3          7           0        1.436323   -0.008882   -0.023578
      4          1           0       -1.641483   -0.816444   -0.628132
      5          1           0       -1.578451    0.924381   -0.401435
      6          1           0       -1.381056   -0.157420    0.924666
 ---------------------------------------------------------------------

 SCF Done:  E(RB2PLYPD3) =  -132.510176934     A.U. after   12 cycles
 E2(B2PLYPD3) =    -0.1793735711D+00 E(B2PLYPD3) =    -0.13268955050512D+03

 The electronic state is 1-A.
 Alpha  occ. eigenvalues --  -14.83886 -10.66236 -10.65981  -1.04453  -0.90106
 Alpha  occ. eigenvalues --   -0.58779  -0.57725  -0.52247  -0.44628  -0.39719
 Alpha  occ. eigenvalues --   -0.39271
 Alpha virt. eigenvalues --    0.03686   0.07716   0.09778   0.10389   0.10883
 Alpha virt. eigenvalues --    0.11599   0.15175   0.15743   0.16898   0.19953
 Alpha virt. eigenvalues --    0.20133   0.24591   0.32169   0.33943   0.36082

 Mulliken charges:
               1
     1  C   -0.104245
     2  C   -0.007357
     3  N   -0.201082
     4  H    0.089150
     5  H    0.099497
     6  H    0.124037
 Sum of Mulliken charges =   0.00000

 Dipole moment (field-independent basis, Debye):
    X=             -4.1264    Y=              0.0169    Z=              0.0321  Tot=              4.1266
 Quadrupole moment (field-independent basis, Debye-Ang):
   XX=            -20.9493   YY=            -17.7306   ZZ=            -17.6281
   XY=              0.0679   XZ=              0.3297   YZ=             -0.1079

 Normal termination of Gaussian 09 at Wed Aug 26 23:15:21 2020.
