 Gaussian 09, Revision D.01,
 Gaussian 09:  ES64L-G09RevD.01 24-Apr-2013

 --------------------
 #p B2PLYPD3/Def2QZVP
 --------------------

 ------------
 cyanomethane
 ------------
 Symbolic Z-matrix:
 Charge =  0 Multiplicity = 1

                         Standard orientation:
 ---------------------------------------------------------------------
 Center     Atomic      Atomic             Coordinates (Angstroms)
 Number     Number       Type             X           Y           Z
 ---------------------------------------------------------------------
      1          6           0        1.179435   -0.021266   -0.019992
      2          6           0       -0.281620    0.037443   -0.026186
      3          7           0       -1.410372   -0.009407    0.022348
      4          1           0        1.354345   -0.638967   -0.733202
      5          1           0        1.540721   -0.391228    0.947089
      6          1           0        1.590653    0.998986   -0.093254
 ---------------------------------------------------------------------

 SCF Done:  E(RB2PLYPD3) =  -132.519523525     A.U. after   12 cycles
 E2(B2PLYPD3) =    -0.1782048731D+00 E(B2PLYPD3) =    -0.13269772839771D+03

 The electronic state is 1-A.
 Alpha  occ. eigenvalues --  -14.83315 -10.65952 -10.65289  -1.04991  -0.90389
 Alpha  occ. eigenvalues --   -0.58791  -0.57657  -0.52876  -0.44505  -0.39846
 Alpha  occ. eigenvalues --   -0.39371
 Alpha virt. eigenvalues --    0.03861   0.08052   0.09586   0.10305   0.11449
 Alpha virt. eigenvalues --    0.11855   0.15384   0.15945   0.16462   0.19952
 Alpha virt. eigenvalues --    0.20075   0.25356   0.32855   0.33932   0.36297

 Mulliken charges:
               1
     1  C   -0.097803
     2  C   -0.010515
     3  N   -0.195722
     4  H    0.114994
     5  H    0.092421
     6  H    0.096625
 Sum of Mulliken charges =   0.00000

 Dipole moment (field-independent basis, Debye):
    X=              4.0676    Y=              0.0115    Z=             -0.0060  Tot=              4.0676
 Quadrupole moment (field-independent basis, Debye-Ang):
   XX=            -21.1333   YY=            -17.4914   ZZ=            -17.6187
   XY=              0.0730   XZ=              0.3190   YZ=              0.1504

 Normal termination of Gaussian 09 at Wed Aug 26 21:22:36 2020.
