 Gaussian 09, Revision D.01,
 Gaussian 09:  ES64L-G09RevD.01 24-Apr-2013

 --------------------
 #p B2PLYPD3/Def2QZVP
 --------------------

 ------------
 cyanomethane
 ------------
 Symbolic Z-matrix:
 Charge =  0 Multiplicity = 1

                         Standard orientation:
 ---------------------------------------------------------------------
 Center     Atomic      Atomic             Coordinates (Angstroms)
 Number     Number       Type             X           Y           Z
 ---------------------------------------------------------------------
      1          6           0       -1.187482   -0.021580   -0.015312
      2          6           0        0.288542    0.052474   -0.025823
      3          7           0        1.416626   -0.022361    0.016971
      4          1           0       -1.529527   -0.116572    1.037508
      5          1           0       -1.458842   -0.881077   -0.546448
      6          1           0       -1.534369    0.968810   -0.363038
 ---------------------------------------------------------------------

 SCF Done:  E(RB2PLYPD3) =  -132.531149505     A.U. after   11 cycles
 E2(B2PLYPD3) =    -0.1786283299D+00 E(B2PLYPD3) =    -0.13270977783506D+03

 The electronic state is 1-A.
 Alpha  occ. eigenvalues --  -14.83362 -10.67227 -10.65387  -1.04909  -0.89004
 Alpha  occ. eigenvalues --   -0.58350  -0.55851  -0.52670  -0.44500  -0.39786
 Alpha  occ. eigenvalues --   -0.39360
 Alpha virt. eigenvalues --    0.03714   0.08188   0.08850   0.10171   0.11426
 Alpha virt. eigenvalues --    0.11822   0.15253   0.15765   0.16529   0.19878
 Alpha virt. eigenvalues --    0.20081   0.25188   0.32765   0.33555   0.35641

 Mulliken charges:
               1
     1  C   -0.100669
     2  C   -0.009524
     3  N   -0.194626
     4  H    0.094211
     5  H    0.109508
     6  H    0.101101
 Sum of Mulliken charges =   0.00000

 Dipole moment (field-independent basis, Debye):
    X=             -4.0603    Y=              0.0322    Z=              0.0101  Tot=              4.0604
 Quadrupole moment (field-independent basis, Debye-Ang):
   XX=            -21.2992   YY=            -17.3768   ZZ=            -17.8086
   XY=              0.0820   XZ=             -0.2287   YZ=              0.0795

 Normal termination of Gaussian 09 at Wed Aug 26 22:05:18 2020.
