 Gaussian 09, Revision D.01,
 Gaussian 09:  ES64L-G09RevD.01 24-Apr-2013

 --------------------
 #p B2PLYPD3/Def2QZVP
 --------------------

 ------------
 cyanomethane
 ------------
 Symbolic Z-matrix:
 Charge =  0 Multiplicity = 1

                         Standard orientation:
 ---------------------------------------------------------------------
 Center     Atomic      Atomic             Coordinates (Angstroms)
 Number     Number       Type             X           Y           Z
 ---------------------------------------------------------------------
      1          6           0       -1.177601    0.010939    0.012013
      2          6           0        0.280846    0.022322    0.009351
      3          7           0        1.424482   -0.009714   -0.008191
      4          1           0       -1.493656   -0.294093    0.961793
      5          1           0       -1.519907   -0.808466   -0.720970
      6          1           0       -1.577280    0.970990   -0.311663
 ---------------------------------------------------------------------

 SCF Done:  E(RB2PLYPD3) =  -132.532190075     A.U. after   12 cycles
 E2(B2PLYPD3) =    -0.1796852816D+00 E(B2PLYPD3) =    -0.13271187535629D+03

 The electronic state is 1-A.
 Alpha  occ. eigenvalues --  -14.83803 -10.67292 -10.65849  -1.04475  -0.89180
 Alpha  occ. eigenvalues --   -0.59169  -0.55331  -0.52659  -0.44659  -0.39439
 Alpha  occ. eigenvalues --   -0.39012
 Alpha virt. eigenvalues --    0.03657   0.07711   0.08551   0.10201   0.11339
 Alpha virt. eigenvalues --    0.11847   0.15369   0.15937   0.16528   0.19984
 Alpha virt. eigenvalues --    0.20123   0.25307   0.32530   0.33543   0.35462

 Mulliken charges:
               1
     1  C   -0.095386
     2  C   -0.003824
     3  N   -0.201464
     4  H    0.103742
     5  H    0.093527
     6  H    0.103405
 Sum of Mulliken charges =   0.00000

 Dipole moment (field-independent basis, Debye):
    X=             -4.0966    Y=             -0.0038    Z=              0.0237  Tot=              4.0967
 Quadrupole moment (field-independent basis, Debye-Ang):
   XX=            -21.1616   YY=            -17.6042   ZZ=            -17.7536
   XY=              0.0508   XZ=              0.0610   YZ=             -0.0983

 Normal termination of Gaussian 09 at Wed Aug 26 15:44:19 2020.
