 Gaussian 09, Revision D.01,
 Gaussian 09:  ES64L-G09RevD.01 24-Apr-2013

 --------------------
 #p B2PLYPD3/Def2QZVP
 --------------------

 ------------
 cyanomethane
 ------------
 Symbolic Z-matrix:
 Charge =  0 Multiplicity = 1

                         Standard orientation:
 ---------------------------------------------------------------------
 Center     Atomic      Atomic             Coordinates (Angstroms)
 Number     Number       Type             X           Y           Z
 ---------------------------------------------------------------------
      1          6           0        1.201350    0.006057   -0.004226
      2          6           0       -0.274657   -0.027916   -0.038132
      3          7           0       -1.452680    0.027841    0.023859
      4          1           0        1.356088   -0.758169   -0.607364
      5          1           0        1.547597   -0.239282    0.954676
      6          1           0        1.704915    0.933715   -0.260177
 ---------------------------------------------------------------------

 SCF Done:  E(RB2PLYPD3) =  -132.515120865     A.U. after   13 cycles
 E2(B2PLYPD3) =    -0.1826780165D+00 E(B2PLYPD3) =    -0.13269779888136D+03

 The electronic state is 1-A.
 Alpha  occ. eigenvalues --  -14.84969 -10.67147 -10.65888  -1.03105  -0.90540
 Alpha  occ. eigenvalues --   -0.60462  -0.56004  -0.53568  -0.44835  -0.38635
 Alpha  occ. eigenvalues --   -0.38490
 Alpha virt. eigenvalues --    0.03716   0.07087   0.08888   0.09874   0.11006
 Alpha virt. eigenvalues --    0.11326   0.14809   0.15562   0.17497   0.20125
 Alpha virt. eigenvalues --    0.20440   0.25094   0.32317   0.34946   0.35755

 Mulliken charges:
               1
     1  C   -0.082556
     2  C    0.004977
     3  N   -0.218720
     4  H    0.107138
     5  H    0.091922
     6  H    0.097240
 Sum of Mulliken charges =   0.00000

 Dipole moment (field-independent basis, Debye):
    X=              4.1795    Y=             -0.0674    Z=             -0.0025  Tot=              4.1800
 Quadrupole moment (field-independent basis, Debye-Ang):
   XX=            -20.8450   YY=            -17.6979   ZZ=            -17.9394
   XY=              0.3082   XZ=              0.2593   YZ=              0.0691

 Normal termination of Gaussian 09 at Wed Aug 26 19:52:28 2020.
