 Gaussian 09, Revision D.01,
 Gaussian 09:  ES64L-G09RevD.01 24-Apr-2013

 --------------------
 #p B2PLYPD3/Def2QZVP
 --------------------

 ------------
 cyanomethane
 ------------
 Symbolic Z-matrix:
 Charge =  0 Multiplicity = 1

                         Standard orientation:
 ---------------------------------------------------------------------
 Center     Atomic      Atomic             Coordinates (Angstroms)
 Number     Number       Type             X           Y           Z
 ---------------------------------------------------------------------
      1          6           0        1.196697   -0.035437    0.030320
      2          6           0       -0.269902   -0.014221   -0.049772
      3          7           0       -1.453901    0.012261    0.019842
      4          1           0        1.576716    0.931218   -0.395495
      5          1           0        1.547546   -0.705346   -0.540666
      6          1           0        1.492280   -0.013750    0.913984
 ---------------------------------------------------------------------

 SCF Done:  E(RB2PLYPD3) =  -132.492960093     A.U. after   12 cycles
 E2(B2PLYPD3) =    -0.1825873476D+00 E(B2PLYPD3) =    -0.13267554744086D+03

 The electronic state is 1-A.
 Alpha  occ. eigenvalues --  -14.85155 -10.67269 -10.64586  -1.02952  -0.91600
 Alpha  occ. eigenvalues --   -0.61257  -0.59340  -0.52787  -0.44943  -0.38856
 Alpha  occ. eigenvalues --   -0.38202
 Alpha virt. eigenvalues --    0.03804   0.07482   0.08451   0.10176   0.10730
 Alpha virt. eigenvalues --    0.11435   0.15464   0.15871   0.16938   0.20117
 Alpha virt. eigenvalues --    0.20348   0.25225   0.32026   0.33880   0.36932

 Mulliken charges:
               1
     1  C   -0.068925
     2  C    0.009893
     3  N   -0.221433
     4  H    0.074985
     5  H    0.100428
     6  H    0.105053
 Sum of Mulliken charges =   0.00000

 Dipole moment (field-independent basis, Debye):
    X=              4.1937    Y=              0.0073    Z=             -0.0259  Tot=              4.1938
 Quadrupole moment (field-independent basis, Debye-Ang):
   XX=            -20.6863   YY=            -17.8621   ZZ=            -17.7167
   XY=              0.1474   XZ=              0.0230   YZ=              0.1311

 Normal termination of Gaussian 09 at Wed Aug 26 23:13:07 2020.
