 Gaussian 09, Revision D.01,
 Gaussian 09:  ES64L-G09RevD.01 24-Apr-2013

 --------------------
 #p B2PLYPD3/Def2QZVP
 --------------------

 ------------
 cyanomethane
 ------------
 Symbolic Z-matrix:
 Charge =  0 Multiplicity = 1

                         Standard orientation:
 ---------------------------------------------------------------------
 Center     Atomic      Atomic             Coordinates (Angstroms)
 Number     Number       Type             X           Y           Z
 ---------------------------------------------------------------------
      1          6           0        1.159958    0.019436    0.028672
      2          6           0       -0.277681   -0.023373   -0.043386
      3          7           0       -1.435109    0.012681    0.020882
      4          1           0        1.615291    1.031885   -0.192152
      5          1           0        1.545946   -0.703575   -0.773313
      6          1           0        1.590860   -0.393453    0.907574
 ---------------------------------------------------------------------

 SCF Done:  E(RB2PLYPD3) =  -132.527852386     A.U. after   12 cycles
 E2(B2PLYPD3) =    -0.1815530069D+00 E(B2PLYPD3) =    -0.13270940539247D+03

 The electronic state is 1-A.
 Alpha  occ. eigenvalues --  -14.84508 -10.67637 -10.66540  -1.04077  -0.88967
 Alpha  occ. eigenvalues --   -0.60775  -0.53836  -0.52040  -0.45014  -0.39096
 Alpha  occ. eigenvalues --   -0.38567
 Alpha virt. eigenvalues --    0.03567   0.07061   0.07295   0.09974   0.11402
 Alpha virt. eigenvalues --    0.11823   0.15590   0.15596   0.17825   0.20076
 Alpha virt. eigenvalues --    0.20260   0.25937   0.32343   0.33426   0.35122

 Mulliken charges:
               1
     1  C   -0.080935
     2  C    0.008356
     3  N   -0.207231
     4  H    0.098088
     5  H    0.084173
     6  H    0.097549
 Sum of Mulliken charges =   0.00000

 Dipole moment (field-independent basis, Debye):
    X=              4.1197    Y=             -0.0604    Z=             -0.0256  Tot=              4.1203
 Quadrupole moment (field-independent basis, Debye-Ang):
   XX=            -20.8261   YY=            -17.7045   ZZ=            -18.0327
   XY=              0.0058   XZ=              0.1372   YZ=             -0.0945

 Normal termination of Gaussian 09 at Wed Aug 26 23:34:38 2020.
