 Gaussian 09, Revision D.01,
 Gaussian 09:  ES64L-G09RevD.01 24-Apr-2013

 --------------------
 #p B2PLYPD3/Def2QZVP
 --------------------

 ------------
 cyanomethane
 ------------
 Symbolic Z-matrix:
 Charge =  0 Multiplicity = 1

                         Standard orientation:
 ---------------------------------------------------------------------
 Center     Atomic      Atomic             Coordinates (Angstroms)
 Number     Number       Type             X           Y           Z
 ---------------------------------------------------------------------
      1          6           0       -1.178339    0.012989    0.003099
      2          6           0        0.280485   -0.018458    0.005545
      3          7           0        1.428836    0.007889   -0.002749
      4          1           0       -1.531821    1.028125   -0.059884
      5          1           0       -1.546837   -0.482565    0.908326
      6          1           0       -1.536072   -0.567973   -0.881060
 ---------------------------------------------------------------------

 SCF Done:  E(RB2PLYPD3) =  -132.535274171     A.U. after   11 cycles
 E2(B2PLYPD3) =    -0.1800391057D+00 E(B2PLYPD3) =    -0.13271531327673D+03

 The electronic state is 1-A.
 Alpha  occ. eigenvalues --  -14.83964 -10.67348 -10.66016  -1.04308  -0.89062
 Alpha  occ. eigenvalues --   -0.59264  -0.54428  -0.53375  -0.44704  -0.39242
 Alpha  occ. eigenvalues --   -0.39060
 Alpha virt. eigenvalues --    0.03727   0.07918   0.08091   0.10178   0.11447
 Alpha virt. eigenvalues --    0.11625   0.15363   0.15978   0.16503   0.20047
 Alpha virt. eigenvalues --    0.20091   0.25333   0.32694   0.34052   0.34934

 Mulliken charges:
               1
     1  C   -0.092476
     2  C   -0.003064
     3  N   -0.203467
     4  H    0.102973
     5  H    0.099184
     6  H    0.096850
 Sum of Mulliken charges =   0.00000

 Dipole moment (field-independent basis, Debye):
    X=             -4.1073    Y=             -0.0149    Z=              0.0025  Tot=              4.1073
 Quadrupole moment (field-independent basis, Debye-Ang):
   XX=            -21.1280   YY=            -17.6665   ZZ=            -17.7465
   XY=             -0.0252   XZ=              0.0118   YZ=             -0.0226

 Normal termination of Gaussian 09 at Thu Aug 27 00:02:43 2020.
