 Gaussian 09, Revision D.01,
 Gaussian 09:  ES64L-G09RevD.01 24-Apr-2013

 --------------------
 #p B2PLYPD3/Def2QZVP
 --------------------

 ------------
 cyanomethane
 ------------
 Symbolic Z-matrix:
 Charge =  0 Multiplicity = 1

                         Standard orientation:
 ---------------------------------------------------------------------
 Center     Atomic      Atomic             Coordinates (Angstroms)
 Number     Number       Type             X           Y           Z
 ---------------------------------------------------------------------
      1          6           0       -1.178385    0.016203    0.003337
      2          6           0        0.289253   -0.010107   -0.018150
      3          7           0        1.433173    0.003072    0.008395
      4          1           0       -1.559603    1.026494   -0.024403
      5          1           0       -1.558619   -0.512550    0.918540
      6          1           0       -1.579198   -0.572023   -0.864024
 ---------------------------------------------------------------------

 SCF Done:  E(RB2PLYPD3) =  -132.534185063     A.U. after   11 cycles
 E2(B2PLYPD3) =    -0.1798789766D+00 E(B2PLYPD3) =    -0.13271406403950D+03

 The electronic state is 1-A.
 Alpha  occ. eigenvalues --  -14.83960 -10.67764 -10.66050  -1.04531  -0.88538
 Alpha  occ. eigenvalues --   -0.59423  -0.54087  -0.52531  -0.44781  -0.39460
 Alpha  occ. eigenvalues --   -0.39187
 Alpha virt. eigenvalues --    0.03647   0.07713   0.08021   0.10192   0.11448
 Alpha virt. eigenvalues --    0.11735   0.15326   0.16161   0.16799   0.19987
 Alpha virt. eigenvalues --    0.20063   0.25203   0.32538   0.33816   0.34937

 Mulliken charges:
               1
     1  C   -0.089941
     2  C   -0.002118
     3  N   -0.199672
     4  H    0.102371
     5  H    0.095333
     6  H    0.094028
 Sum of Mulliken charges =   0.00000

 Dipole moment (field-independent basis, Debye):
    X=             -4.1086    Y=             -0.0148    Z=             -0.0104  Tot=              4.1087
 Quadrupole moment (field-independent basis, Debye-Ang):
   XX=            -21.0023   YY=            -17.6710   ZZ=            -17.8570
   XY=              0.0216   XZ=             -0.0406   YZ=             -0.0060

 Normal termination of Gaussian 09 at Wed Aug 26 23:54:53 2020.
