 Gaussian 09, Revision D.01,
 Gaussian 09:  ES64L-G09RevD.01 24-Apr-2013

 --------------------
 #p B2PLYPD3/Def2QZVP
 --------------------

 ------------
 cyanomethane
 ------------
 Symbolic Z-matrix:
 Charge =  0 Multiplicity = 1

                         Standard orientation:
 ---------------------------------------------------------------------
 Center     Atomic      Atomic             Coordinates (Angstroms)
 Number     Number       Type             X           Y           Z
 ---------------------------------------------------------------------
      1          6           0       -1.174840    0.005394   -0.008439
      2          6           0        0.269205   -0.017398    0.006597
      3          7           0        1.433519    0.007396   -0.002786
      4          1           0       -1.531274   -0.047371    0.992059
      5          1           0       -1.548077   -0.836005   -0.527089
      6          1           0       -1.521467    0.903624   -0.434415
 ---------------------------------------------------------------------

 SCF Done:  E(RB2PLYPD3) =  -132.533178690     A.U. after   11 cycles
 E2(B2PLYPD3) =    -0.1809382389D+00 E(B2PLYPD3) =    -0.13271411692923D+03

 The electronic state is 1-A.
 Alpha  occ. eigenvalues --  -14.84410 -10.66437 -10.66042  -1.03734  -0.90243
 Alpha  occ. eigenvalues --   -0.60288  -0.55242  -0.54394  -0.44800  -0.38879
 Alpha  occ. eigenvalues --   -0.38746
 Alpha virt. eigenvalues --    0.03907   0.08027   0.08098   0.10156   0.11254
 Alpha virt. eigenvalues --    0.11416   0.15536   0.16028   0.16508   0.20133
 Alpha virt. eigenvalues --    0.20188   0.25589   0.32969   0.34812   0.35347

 Mulliken charges:
               1
     1  C   -0.071177
     2  C   -0.000389
     3  N   -0.212485
     4  H    0.092015
     5  H    0.095054
     6  H    0.096982
 Sum of Mulliken charges =   0.00000

 Dipole moment (field-independent basis, Debye):
    X=             -4.1509    Y=             -0.0103    Z=              0.0189  Tot=              4.1510
 Quadrupole moment (field-independent basis, Debye-Ang):
   XX=            -20.9361   YY=            -17.6590   ZZ=            -17.7953
   XY=             -0.0168   XZ=             -0.0199   YZ=             -0.0025

 Normal termination of Gaussian 09 at Thu Aug 27 00:01:13 2020.
