 Gaussian 09, Revision D.01,
 Gaussian 09:  ES64L-G09RevD.01 24-Apr-2013

 --------------------
 #p B2PLYPD3/Def2QZVP
 --------------------

 ------------
 cyanomethane
 ------------
 Symbolic Z-matrix:
 Charge =  0 Multiplicity = 1

                         Standard orientation:
 ---------------------------------------------------------------------
 Center     Atomic      Atomic             Coordinates (Angstroms)
 Number     Number       Type             X           Y           Z
 ---------------------------------------------------------------------
      1          6           0        1.165937   -0.004728   -0.016982
      2          6           0       -0.295649    0.024454   -0.020453
      3          7           0       -1.444157   -0.018597    0.027013
      4          1           0        1.844007   -0.431506    0.923031
      5          1           0        1.527349    1.063632   -0.086817
      6          1           0        1.516021   -0.620297   -0.800698
 ---------------------------------------------------------------------

 SCF Done:  E(RB2PLYPD3) =  -132.515338001     A.U. after   12 cycles
 E2(B2PLYPD3) =    -0.1813863807D+00 E(B2PLYPD3) =    -0.13269672438206D+03

 The electronic state is 1-A.
 Alpha  occ. eigenvalues --  -14.84448 -10.68534 -10.66574  -1.04537  -0.88156
 Alpha  occ. eigenvalues --   -0.60267  -0.54459  -0.49705  -0.45098  -0.39491
 Alpha  occ. eigenvalues --   -0.38763
 Alpha virt. eigenvalues --    0.02938   0.05982   0.08151   0.10111   0.11286
 Alpha virt. eigenvalues --    0.12059   0.15344   0.16154   0.17781   0.19872
 Alpha virt. eigenvalues --    0.20533   0.25389   0.30989   0.33073   0.34908

 Mulliken charges:
               1
     1  C   -0.089192
     2  C    0.008229
     3  N   -0.199637
     4  H    0.083930
     5  H    0.094620
     6  H    0.102050
 Sum of Mulliken charges =   0.00000

 Dipole moment (field-independent basis, Debye):
    X=              4.1131    Y=              0.0297    Z=             -0.0860  Tot=              4.1141
 Quadrupole moment (field-independent basis, Debye-Ang):
   XX=            -20.6211   YY=            -17.7880   ZZ=            -18.1989
   XY=             -0.2058   XZ=              0.2912   YZ=              0.1640

 Normal termination of Gaussian 09 at Wed Aug 26 23:01:20 2020.
