 Gaussian 09, Revision D.01,
 Gaussian 09:  ES64L-G09RevD.01 24-Apr-2013

 --------------------
 #p B2PLYPD3/Def2QZVP
 --------------------

 ------------
 cyanomethane
 ------------
 Symbolic Z-matrix:
 Charge =  0 Multiplicity = 1

                         Standard orientation:
 ---------------------------------------------------------------------
 Center     Atomic      Atomic             Coordinates (Angstroms)
 Number     Number       Type             X           Y           Z
 ---------------------------------------------------------------------
      1          6           0        1.186522   -0.010870   -0.022083
      2          6           0       -0.286679   -0.002219   -0.028722
      3          7           0       -1.439646    0.000901    0.022127
      4          1           0        1.627936    0.024107    0.993197
      5          1           0        1.508138    0.899368   -0.424836
      6          1           0        1.542396   -0.851252   -0.418418
 ---------------------------------------------------------------------

 SCF Done:  E(RB2PLYPD3) =  -132.524964376     A.U. after   11 cycles
 E2(B2PLYPD3) =    -0.1801459413D+00 E(B2PLYPD3) =    -0.13270511031685D+03

 The electronic state is 1-A.
 Alpha  occ. eigenvalues --  -14.84258 -10.66358 -10.66031  -1.04150  -0.89980
 Alpha  occ. eigenvalues --   -0.60401  -0.56975  -0.52093  -0.44829  -0.39510
 Alpha  occ. eigenvalues --   -0.38937
 Alpha virt. eigenvalues --    0.03782   0.07756   0.08954   0.10209   0.10892
 Alpha virt. eigenvalues --    0.11735   0.15366   0.16403   0.16860   0.19943
 Alpha virt. eigenvalues --    0.20208   0.25048   0.32692   0.34081   0.36313

 Mulliken charges:
               1
     1  C   -0.064758
     2  C    0.000100
     3  N   -0.206079
     4  H    0.077579
     5  H    0.094770
     6  H    0.098387
 Sum of Mulliken charges =   0.00000

 Dipole moment (field-independent basis, Debye):
    X=              4.1537    Y=              0.0117    Z=              0.0013  Tot=              4.1537
 Quadrupole moment (field-independent basis, Debye-Ang):
   XX=            -20.7443   YY=            -17.5103   ZZ=            -18.0269
   XY=              0.0088   XZ=              0.2944   YZ=              0.0371

 Normal termination of Gaussian 09 at Wed Aug 26 15:42:17 2020.
