 Gaussian 09, Revision D.01,
 Gaussian 09:  ES64L-G09RevD.01 24-Apr-2013

 --------------------
 #p B2PLYPD3/Def2QZVP
 --------------------

 ------------
 cyanomethane
 ------------
 Symbolic Z-matrix:
 Charge =  0 Multiplicity = 1

                         Standard orientation:
 ---------------------------------------------------------------------
 Center     Atomic      Atomic             Coordinates (Angstroms)
 Number     Number       Type             X           Y           Z
 ---------------------------------------------------------------------
      1          6           0        1.175895    0.005189    0.008717
      2          6           0       -0.287713   -0.050999   -0.009808
      3          7           0       -1.436111    0.025480    0.005998
      4          1           0        1.560553    1.048695   -0.036625
      5          1           0        1.559569   -0.496603   -0.843804
      6          1           0        1.603559   -0.455592    0.844989
 ---------------------------------------------------------------------

 SCF Done:  E(RB2PLYPD3) =  -132.532959994     A.U. after   12 cycles
 E2(B2PLYPD3) =    -0.1800949178D+00 E(B2PLYPD3) =    -0.13271305491149D+03

 The electronic state is 1-A.
 Alpha  occ. eigenvalues --  -14.84241 -10.66631 -10.66305  -1.04337  -0.89366
 Alpha  occ. eigenvalues --   -0.60461  -0.54242  -0.53353  -0.44907  -0.39360
 Alpha  occ. eigenvalues --   -0.39210
 Alpha virt. eigenvalues --    0.03688   0.07749   0.08428   0.10162   0.11354
 Alpha virt. eigenvalues --    0.11541   0.15476   0.16177   0.17134   0.20020
 Alpha virt. eigenvalues --    0.20089   0.25435   0.32925   0.34392   0.35322

 Mulliken charges:
               1
     1  C   -0.068655
     2  C    0.001443
     3  N   -0.203641
     4  H    0.090662
     5  H    0.088915
     6  H    0.091276
 Sum of Mulliken charges =   0.00000

 Dipole moment (field-independent basis, Debye):
    X=              4.1306    Y=             -0.0546    Z=             -0.0175  Tot=              4.1310
 Quadrupole moment (field-independent basis, Debye-Ang):
   XX=            -20.7287   YY=            -17.7444   ZZ=            -17.8458
   XY=              0.0910   XZ=              0.0415   YZ=             -0.0172

 Normal termination of Gaussian 09 at Wed Aug 26 14:55:38 2020.
