 Gaussian 09, Revision D.01,
 Gaussian 09:  ES64L-G09RevD.01 24-Apr-2013

 --------------------
 #p B2PLYPD3/Def2QZVP
 --------------------

 ------------
 cyanomethane
 ------------
 Symbolic Z-matrix:
 Charge =  0 Multiplicity = 1

                         Standard orientation:
 ---------------------------------------------------------------------
 Center     Atomic      Atomic             Coordinates (Angstroms)
 Number     Number       Type             X           Y           Z
 ---------------------------------------------------------------------
      1          6           0        1.167704   -0.006482   -0.006680
      2          6           0       -0.271993    0.020411    0.003481
      3          7           0       -1.432461   -0.008917    0.000849
      4          1           0        1.563587    1.004718   -0.066085
      5          1           0        1.520446   -0.574703   -0.822109
      6          1           0        1.568927   -0.451171    0.901443
 ---------------------------------------------------------------------

 SCF Done:  E(RB2PLYPD3) =  -132.534357474     A.U. after   11 cycles
 E2(B2PLYPD3) =    -0.1808676218D+00 E(B2PLYPD3) =    -0.13271522509533D+03

 The electronic state is 1-A.
 Alpha  occ. eigenvalues --  -14.84372 -10.66558 -10.66379  -1.03928  -0.89813
 Alpha  occ. eigenvalues --   -0.60453  -0.54674  -0.53702  -0.44861  -0.38933
 Alpha  occ. eigenvalues --   -0.38819
 Alpha virt. eigenvalues --    0.03825   0.07675   0.07951   0.10135   0.11391
 Alpha virt. eigenvalues --    0.11526   0.15568   0.16305   0.16515   0.20102
 Alpha virt. eigenvalues --    0.20160   0.25687   0.32905   0.34570   0.35113

 Mulliken charges:
               1
     1  C   -0.073262
     2  C    0.000645
     3  N   -0.209633
     4  H    0.093153
     5  H    0.096982
     6  H    0.092115
 Sum of Mulliken charges =   0.00000

 Dipole moment (field-independent basis, Debye):
    X=              4.1400    Y=              0.0043    Z=             -0.0005  Tot=              4.1400
 Quadrupole moment (field-independent basis, Debye-Ang):
   XX=            -20.8925   YY=            -17.7356   ZZ=            -17.7933
   XY=             -0.0479   XZ=              0.0434   YZ=              0.0333

 Normal termination of Gaussian 09 at Thu Aug 27 00:59:27 2020.
