 Gaussian 09, Revision D.01,
 Gaussian 09:  ES64L-G09RevD.01 24-Apr-2013

 --------------------
 #p B2PLYPD3/Def2QZVP
 --------------------

 ------------
 cyanomethane
 ------------
 Symbolic Z-matrix:
 Charge =  0 Multiplicity = 1

                         Standard orientation:
 ---------------------------------------------------------------------
 Center     Atomic      Atomic             Coordinates (Angstroms)
 Number     Number       Type             X           Y           Z
 ---------------------------------------------------------------------
      1          6           0       -1.175749    0.002067    0.002100
      2          6           0        0.266766    0.030830   -0.018335
      3          7           0        1.435606   -0.025619    0.008005
      4          1           0       -1.426946    0.925821   -0.422631
      5          1           0       -1.522760   -0.077160    1.011005
      6          1           0       -1.645633   -0.866712   -0.546999
 ---------------------------------------------------------------------

 SCF Done:  E(RB2PLYPD3) =  -132.528222367     A.U. after   12 cycles
 E2(B2PLYPD3) =    -0.1819286142D+00 E(B2PLYPD3) =    -0.13271015098166D+03

 The electronic state is 1-A.
 Alpha  occ. eigenvalues --  -14.84577 -10.66817 -10.66612  -1.03521  -0.89879
 Alpha  occ. eigenvalues --   -0.59925  -0.55461  -0.53122  -0.44812  -0.38626
 Alpha  occ. eigenvalues --   -0.38524
 Alpha virt. eigenvalues --    0.03667   0.07020   0.08363   0.10042   0.11157
 Alpha virt. eigenvalues --    0.11534   0.15217   0.15703   0.16894   0.20107
 Alpha virt. eigenvalues --    0.20292   0.25654   0.32620   0.34369   0.34935

 Mulliken charges:
               1
     1  C   -0.085723
     2  C    0.001589
     3  N   -0.214726
     4  H    0.104278
     5  H    0.098954
     6  H    0.095628
 Sum of Mulliken charges =   0.00000

 Dipole moment (field-independent basis, Debye):
    X=             -4.1375    Y=              0.0421    Z=              0.0140  Tot=              4.1377
 Quadrupole moment (field-independent basis, Debye-Ang):
   XX=            -21.0650   YY=            -17.6760   ZZ=            -17.8533
   XY=              0.2853   XZ=             -0.0792   YZ=             -0.0649

 Normal termination of Gaussian 09 at Wed Aug 26 13:03:11 2020.
