 Gaussian 09, Revision D.01,
 Gaussian 09:  ES64L-G09RevD.01 24-Apr-2013

 --------------------
 #p B2PLYPD3/Def2QZVP
 --------------------

 ------------
 cyanomethane
 ------------
 Symbolic Z-matrix:
 Charge =  0 Multiplicity = 1

                         Standard orientation:
 ---------------------------------------------------------------------
 Center     Atomic      Atomic             Coordinates (Angstroms)
 Number     Number       Type             X           Y           Z
 ---------------------------------------------------------------------
      1          6           0        1.168899    0.001624    0.003924
      2          6           0       -0.271712   -0.000737   -0.016780
      3          7           0       -1.433803   -0.000828    0.003254
      4          1           0        1.552464    1.018135   -0.190167
      5          1           0        1.613295   -0.696888   -0.723087
      6          1           0        1.487745   -0.320778    0.967613
 ---------------------------------------------------------------------

 SCF Done:  E(RB2PLYPD3) =  -132.533884301     A.U. after   12 cycles
 E2(B2PLYPD3) =    -0.1811636429D+00 E(B2PLYPD3) =    -0.13271504794397D+03

 The electronic state is 1-A.
 Alpha  occ. eigenvalues --  -14.84401 -10.66992 -10.66432  -1.03861  -0.89541
 Alpha  occ. eigenvalues --   -0.60172  -0.54297  -0.53576  -0.44849  -0.38827
 Alpha  occ. eigenvalues --   -0.38778
 Alpha virt. eigenvalues --    0.03759   0.07442   0.07855   0.10149   0.11417
 Alpha virt. eigenvalues --    0.11530   0.15494   0.16080   0.16630   0.20117
 Alpha virt. eigenvalues --    0.20161   0.25648   0.32692   0.34558   0.34708

 Mulliken charges:
               1
     1  C   -0.080621
     2  C    0.001079
     3  N   -0.210140
     4  H    0.097305
     5  H    0.093959
     6  H    0.098418
 Sum of Mulliken charges =   0.00000

 Dipole moment (field-independent basis, Debye):
    X=              4.1380    Y=             -0.0116    Z=              0.0178  Tot=              4.1381
 Quadrupole moment (field-independent basis, Debye-Ang):
   XX=            -20.9638   YY=            -17.7034   ZZ=            -17.8504
   XY=             -0.0541   XZ=             -0.0203   YZ=             -0.0243

 Normal termination of Gaussian 09 at Wed Aug 26 15:56:39 2020.
