 Gaussian 09, Revision D.01,
 Gaussian 09:  ES64L-G09RevD.01 24-Apr-2013

 --------------------
 #p B2PLYPD3/Def2QZVP
 --------------------

 ------------
 cyanomethane
 ------------
 Symbolic Z-matrix:
 Charge =  0 Multiplicity = 1

                         Standard orientation:
 ---------------------------------------------------------------------
 Center     Atomic      Atomic             Coordinates (Angstroms)
 Number     Number       Type             X           Y           Z
 ---------------------------------------------------------------------
      1          6           0       -1.188371   -0.005842    0.026663
      2          6           0        0.295404    0.040046    0.024583
      3          7           0        1.441898   -0.017760   -0.022605
      4          1           0       -1.488393   -0.340081    1.016268
      5          1           0       -1.613808   -0.834140   -0.836386
      6          1           0       -1.633290    1.093312   -0.329120
 ---------------------------------------------------------------------

 SCF Done:  E(RB2PLYPD3) =  -132.505978449     A.U. after   12 cycles
 E2(B2PLYPD3) =    -0.1818674517D+00 E(B2PLYPD3) =    -0.13268784590052D+03

 The electronic state is 1-A.
 Alpha  occ. eigenvalues --  -14.84174 -10.70456 -10.66324  -1.04360  -0.86793
 Alpha  occ. eigenvalues --   -0.57863  -0.53383  -0.49771  -0.44785  -0.39341
 Alpha  occ. eigenvalues --   -0.38686
 Alpha virt. eigenvalues --    0.02636   0.05702   0.07827   0.10183   0.11314
 Alpha virt. eigenvalues --    0.11919   0.14931   0.16060   0.16303   0.19917
 Alpha virt. eigenvalues --    0.20076   0.24865   0.30254   0.31054   0.34150

 Mulliken charges:
               1
     1  C   -0.129423
     2  C    0.005944
     3  N   -0.198610
     4  H    0.119884
     5  H    0.098252
     6  H    0.103953
 Sum of Mulliken charges =   0.00000

 Dipole moment (field-independent basis, Debye):
    X=             -4.0504    Y=              0.0141    Z=              0.0546  Tot=              4.0508
 Quadrupole moment (field-independent basis, Debye-Ang):
   XX=            -21.4372   YY=            -17.8327   ZZ=            -17.8162
   XY=              0.0911   XZ=              0.2193   YZ=             -0.1454

 Normal termination of Gaussian 09 at Wed Aug 26 21:46:58 2020.
