 Gaussian 09, Revision D.01,
 Gaussian 09:  ES64L-G09RevD.01 24-Apr-2013

 --------------------
 #p B2PLYPD3/Def2QZVP
 --------------------

 ------------
 cyanomethane
 ------------
 Symbolic Z-matrix:
 Charge =  0 Multiplicity = 1

                         Standard orientation:
 ---------------------------------------------------------------------
 Center     Atomic      Atomic             Coordinates (Angstroms)
 Number     Number       Type             X           Y           Z
 ---------------------------------------------------------------------
      1          6           0       -1.173309    0.013431    0.000059
      2          6           0        0.277008    0.008631   -0.001382
      3          7           0        1.428850   -0.005196    0.001141
      4          1           0       -1.545963   -0.154441    1.001445
      5          1           0       -1.529806   -0.866511   -0.603480
      6          1           0       -1.548380    0.924953   -0.398020
 ---------------------------------------------------------------------

 SCF Done:  E(RB2PLYPD3) =  -132.534510118     A.U. after   11 cycles
 E2(B2PLYPD3) =    -0.1802437933D+00 E(B2PLYPD3) =    -0.13271475391169D+03

 The electronic state is 1-A.
 Alpha  occ. eigenvalues --  -14.84068 -10.67056 -10.66105  -1.04213  -0.89374
 Alpha  occ. eigenvalues --   -0.59733  -0.54932  -0.53086  -0.44752  -0.39210
 Alpha  occ. eigenvalues --   -0.38906
 Alpha virt. eigenvalues --    0.03747   0.07743   0.08176   0.10171   0.11338
 Alpha virt. eigenvalues --    0.11722   0.15441   0.16093   0.16537   0.20033
 Alpha virt. eigenvalues --    0.20146   0.25456   0.32764   0.33951   0.35220

 Mulliken charges:
               1
     1  C   -0.085924
     2  C   -0.001792
     3  N   -0.205331
     4  H    0.096658
     5  H    0.094380
     6  H    0.102010
 Sum of Mulliken charges =   0.00000

 Dipole moment (field-independent basis, Debye):
    X=             -4.1182    Y=             -0.0043    Z=              0.0128  Tot=              4.1183
 Quadrupole moment (field-independent basis, Debye-Ang):
   XX=            -21.0486   YY=            -17.6352   ZZ=            -17.8093
   XY=              0.0482   XZ=             -0.0476   YZ=             -0.0598

 Normal termination of Gaussian 09 at Thu Aug 27 00:08:51 2020.
