 Gaussian 09, Revision D.01,
 Gaussian 09:  ES64L-G09RevD.01 24-Apr-2013

 --------------------
 #p B2PLYPD3/Def2QZVP
 --------------------

 ------------
 cyanomethane
 ------------
 Symbolic Z-matrix:
 Charge =  0 Multiplicity = 1

                         Standard orientation:
 ---------------------------------------------------------------------
 Center     Atomic      Atomic             Coordinates (Angstroms)
 Number     Number       Type             X           Y           Z
 ---------------------------------------------------------------------
      1          6           0       -1.159448    0.021094   -0.014541
      2          6           0        0.263658    0.064777   -0.000141
      3          7           0        1.425647   -0.039863   -0.005684
      4          1           0       -1.495563    1.028882   -0.041053
      5          1           0       -1.468364   -0.550466    0.994750
      6          1           0       -1.640868   -0.714595   -0.825816
 ---------------------------------------------------------------------

 SCF Done:  E(RB2PLYPD3) =  -132.515069183     A.U. after   12 cycles
 E2(B2PLYPD3) =    -0.1827644880D+00 E(B2PLYPD3) =    -0.13269783367142D+03

 The electronic state is 1-A.
 Alpha  occ. eigenvalues --  -14.84469 -10.68650 -10.66430  -1.03723  -0.88883
 Alpha  occ. eigenvalues --   -0.59112  -0.55340  -0.50732  -0.44840  -0.38732
 Alpha  occ. eigenvalues --   -0.37900
 Alpha virt. eigenvalues --    0.03033   0.05679   0.07927   0.09960   0.11043
 Alpha virt. eigenvalues --    0.12223   0.15176   0.15582   0.16953   0.19936
 Alpha virt. eigenvalues --    0.20377   0.25902   0.31648   0.32247   0.34612

 Mulliken charges:
               1
     1  C   -0.109057
     2  C    0.006552
     3  N   -0.210992
     4  H    0.114563
     5  H    0.097349
     6  H    0.101585
 Sum of Mulliken charges =   0.00000

 Dipole moment (field-independent basis, Debye):
    X=             -4.0791    Y=              0.0173    Z=              0.0324  Tot=              4.0793
 Quadrupole moment (field-independent basis, Debye-Ang):
   XX=            -21.3418   YY=            -17.4867   ZZ=            -18.0848
   XY=              0.3677   XZ=              0.0931   YZ=              0.0003

 Normal termination of Gaussian 09 at Wed Aug 26 22:42:56 2020.
