 Gaussian 09, Revision D.01,
 Gaussian 09:  ES64L-G09RevD.01 24-Apr-2013

 --------------------
 #p B2PLYPD3/Def2QZVP
 --------------------

 ------------
 cyanomethane
 ------------
 Symbolic Z-matrix:
 Charge =  0 Multiplicity = 1

                         Standard orientation:
 ---------------------------------------------------------------------
 Center     Atomic      Atomic             Coordinates (Angstroms)
 Number     Number       Type             X           Y           Z
 ---------------------------------------------------------------------
      1          6           0       -1.168996    0.006332    0.005831
      2          6           0        0.279907   -0.003339   -0.004477
      3          7           0        1.429454   -0.000048   -0.000896
      4          1           0       -1.548023    1.017241   -0.156911
      5          1           0       -1.529280   -0.379913    0.948454
      6          1           0       -1.594339   -0.654954   -0.793391
 ---------------------------------------------------------------------

 SCF Done:  E(RB2PLYPD3) =  -132.535184528     A.U. after   11 cycles
 E2(B2PLYPD3) =    -0.1801551378D+00 E(B2PLYPD3) =    -0.13271533966534D+03

 The electronic state is 1-A.
 Alpha  occ. eigenvalues --  -14.84069 -10.67253 -10.66100  -1.04351  -0.89149
 Alpha  occ. eigenvalues --   -0.59889  -0.54254  -0.53078  -0.44809  -0.39209
 Alpha  occ. eigenvalues --   -0.39061
 Alpha virt. eigenvalues --    0.03729   0.07617   0.08029   0.10173   0.11507
 Alpha virt. eigenvalues --    0.11685   0.15472   0.16339   0.16559   0.20045
 Alpha virt. eigenvalues --    0.20095   0.25508   0.32750   0.34279   0.34831

 Mulliken charges:
               1
     1  C   -0.083845
     2  C   -0.001234
     3  N   -0.203282
     4  H    0.098189
     5  H    0.097701
     6  H    0.092470
 Sum of Mulliken charges =   0.00000

 Dipole moment (field-independent basis, Debye):
    X=             -4.1159    Y=             -0.0057    Z=              0.0094  Tot=              4.1159
 Quadrupole moment (field-independent basis, Debye-Ang):
   XX=            -20.9657   YY=            -17.7102   ZZ=            -17.7980
   XY=              0.0361   XZ=              0.0338   YZ=             -0.0406

 Normal termination of Gaussian 09 at Wed Aug 26 23:55:42 2020.
