 Gaussian 09, Revision D.01,
 Gaussian 09:  ES64L-G09RevD.01 24-Apr-2013

 --------------------
 #p B2PLYPD3/Def2QZVP
 --------------------

 ------------
 cyanomethane
 ------------
 Symbolic Z-matrix:
 Charge =  0 Multiplicity = 1

                         Standard orientation:
 ---------------------------------------------------------------------
 Center     Atomic      Atomic             Coordinates (Angstroms)
 Number     Number       Type             X           Y           Z
 ---------------------------------------------------------------------
      1          6           0        1.173557   -0.001669   -0.002808
      2          6           0       -0.278096    0.018776    0.002047
      3          7           0       -1.436363   -0.011187   -0.001748
      4          1           0        1.540909    1.023488   -0.037965
      5          1           0        1.583039   -0.562581   -0.840859
      6          1           0        1.557827   -0.485237    0.895625
 ---------------------------------------------------------------------

 SCF Done:  E(RB2PLYPD3) =  -132.534963848     A.U. after   11 cycles
 E2(B2PLYPD3) =    -0.1808538744D+00 E(B2PLYPD3) =    -0.13271581772198D+03

 The electronic state is 1-A.
 Alpha  occ. eigenvalues --  -14.84354 -10.67066 -10.66409  -1.03995  -0.89289
 Alpha  occ. eigenvalues --   -0.60137  -0.54136  -0.53433  -0.44861  -0.38997
 Alpha  occ. eigenvalues --   -0.38927
 Alpha virt. eigenvalues --    0.03752   0.07610   0.07893   0.10142   0.11365
 Alpha virt. eigenvalues --    0.11548   0.15456   0.16232   0.16650   0.20064
 Alpha virt. eigenvalues --    0.20154   0.25472   0.32758   0.34550   0.34748

 Mulliken charges:
               1
     1  C   -0.078491
     2  C    0.000449
     3  N   -0.207758
     4  H    0.096549
     5  H    0.094953
     6  H    0.094298
 Sum of Mulliken charges =   0.00000

 Dipole moment (field-independent basis, Debye):
    X=              4.1361    Y=              0.0046    Z=              0.0073  Tot=              4.1361
 Quadrupole moment (field-independent basis, Debye-Ang):
   XX=            -20.9187   YY=            -17.7137   ZZ=            -17.8614
   XY=             -0.1161   XZ=             -0.0140   YZ=              0.0021

 Normal termination of Gaussian 09 at Wed Aug 26 11:21:55 2020.
