 Gaussian 09, Revision D.01,
 Gaussian 09:  ES64L-G09RevD.01 24-Apr-2013

 --------------------
 #p B2PLYPD3/Def2QZVP
 --------------------

 ------------
 cyanomethane
 ------------
 Symbolic Z-matrix:
 Charge =  0 Multiplicity = 1

                         Standard orientation:
 ---------------------------------------------------------------------
 Center     Atomic      Atomic             Coordinates (Angstroms)
 Number     Number       Type             X           Y           Z
 ---------------------------------------------------------------------
      1          6           0        1.176835   -0.007686   -0.005020
      2          6           0       -0.276481    0.011218   -0.041274
      3          7           0       -1.445262   -0.004893    0.022581
      4          1           0        1.573081    1.027580   -0.025982
      5          1           0        1.566423   -0.568481   -0.775900
      6          1           0        1.575205   -0.446042    0.921584
 ---------------------------------------------------------------------

 SCF Done:  E(RB2PLYPD3) =  -132.530338487     A.U. after   12 cycles
 E2(B2PLYPD3) =    -0.1818698320D+00 E(B2PLYPD3) =    -0.13271220831940D+03

 The electronic state is 1-A.
 Alpha  occ. eigenvalues --  -14.84770 -10.66857 -10.66786  -1.03568  -0.89516
 Alpha  occ. eigenvalues --   -0.60657  -0.54871  -0.52827  -0.44973  -0.38883
 Alpha  occ. eigenvalues --   -0.38610
 Alpha virt. eigenvalues --    0.03674   0.07142   0.08010   0.10108   0.11075
 Alpha virt. eigenvalues --    0.11542   0.15482   0.16387   0.16606   0.20078
 Alpha virt. eigenvalues --    0.20219   0.25497   0.32624   0.34182   0.35211

 Mulliken charges:
               1
     1  C   -0.069666
     2  C    0.003972
     3  N   -0.212701
     4  H    0.092096
     5  H    0.096550
     6  H    0.089749
 Sum of Mulliken charges =   0.00000

 Dipole moment (field-independent basis, Debye):
    X=              4.1569    Y=             -0.0093    Z=             -0.0182  Tot=              4.1570
 Quadrupole moment (field-independent basis, Debye-Ang):
   XX=            -20.8036   YY=            -17.7779   ZZ=            -17.9179
   XY=             -0.0613   XZ=              0.1600   YZ=              0.0693

 Normal termination of Gaussian 09 at Wed Aug 26 16:10:06 2020.
