 Gaussian 09, Revision D.01,
 Gaussian 09:  ES64L-G09RevD.01 24-Apr-2013

 --------------------
 #p B2PLYPD3/Def2QZVP
 --------------------

 ------------
 cyanomethane
 ------------
 Symbolic Z-matrix:
 Charge =  0 Multiplicity = 1

                         Standard orientation:
 ---------------------------------------------------------------------
 Center     Atomic      Atomic             Coordinates (Angstroms)
 Number     Number       Type             X           Y           Z
 ---------------------------------------------------------------------
      1          6           0       -1.168005   -0.002795    0.006277
      2          6           0        0.263163   -0.020437    0.022551
      3          7           0        1.430064    0.018444   -0.014519
      4          1           0       -1.468159   -0.334644    0.934812
      5          1           0       -1.484886   -0.708068   -0.781939
      6          1           0       -1.628352    1.053002   -0.224208
 ---------------------------------------------------------------------

 SCF Done:  E(RB2PLYPD3) =  -132.525546680     A.U. after   12 cycles
 E2(B2PLYPD3) =    -0.1819283177D+00 E(B2PLYPD3) =    -0.13270747499772D+03

 The electronic state is 1-A.
 Alpha  occ. eigenvalues --  -14.84469 -10.67283 -10.66458  -1.03621  -0.89746
 Alpha  occ. eigenvalues --   -0.59557  -0.55277  -0.52841  -0.44790  -0.38632
 Alpha  occ. eigenvalues --   -0.38412
 Alpha virt. eigenvalues --    0.03458   0.06757   0.08303   0.10087   0.11269
 Alpha virt. eigenvalues --    0.11611   0.15400   0.15502   0.16723   0.20156
 Alpha virt. eigenvalues --    0.20233   0.25793   0.32312   0.33699   0.34737

 Mulliken charges:
               1
     1  C   -0.095064
     2  C    0.001752
     3  N   -0.213671
     4  H    0.106795
     5  H    0.102101
     6  H    0.098088
 Sum of Mulliken charges =   0.00000

 Dipole moment (field-independent basis, Debye):
    X=             -4.1176    Y=             -0.0564    Z=              0.0295  Tot=              4.1181
 Quadrupole moment (field-independent basis, Debye-Ang):
   XX=            -21.1910   YY=            -17.7065   ZZ=            -17.7739
   XY=             -0.1576   XZ=              0.0887   YZ=             -0.0118

 Normal termination of Gaussian 09 at Wed Aug 26 12:10:48 2020.
