 Gaussian 09, Revision D.01,
 Gaussian 09:  ES64L-G09RevD.01 24-Apr-2013

 --------------------
 #p B2PLYPD3/Def2QZVP
 --------------------

 ------------
 cyanomethane
 ------------
 Symbolic Z-matrix:
 Charge =  0 Multiplicity = 1

                         Standard orientation:
 ---------------------------------------------------------------------
 Center     Atomic      Atomic             Coordinates (Angstroms)
 Number     Number       Type             X           Y           Z
 ---------------------------------------------------------------------
      1          6           0        1.176350   -0.013681    0.019575
      2          6           0       -0.291521   -0.036177   -0.004542
      3          7           0       -1.441563    0.010813    0.002549
      4          1           0        1.610666    0.220092    1.006426
      5          1           0        1.472602    0.963370   -0.671204
      6          1           0        1.698698   -0.960006   -0.443268
 ---------------------------------------------------------------------

 SCF Done:  E(RB2PLYPD3) =  -132.518059777     A.U. after   12 cycles
 E2(B2PLYPD3) =    -0.1815719206D+00 E(B2PLYPD3) =    -0.13269963169735D+03

 The electronic state is 1-A.
 Alpha  occ. eigenvalues --  -14.84272 -10.69588 -10.66482  -1.04351  -0.87352
 Alpha  occ. eigenvalues --   -0.59402  -0.52785  -0.50741  -0.44908  -0.39319
 Alpha  occ. eigenvalues --   -0.38660
 Alpha virt. eigenvalues --    0.03105   0.06559   0.07150   0.10167   0.11421
 Alpha virt. eigenvalues --    0.12042   0.15090   0.15787   0.17414   0.20022
 Alpha virt. eigenvalues --    0.20123   0.25139   0.31071   0.31945   0.34590

 Mulliken charges:
               1
     1  C   -0.112272
     2  C    0.009261
     3  N   -0.201236
     4  H    0.106821
     5  H    0.094169
     6  H    0.103257
 Sum of Mulliken charges =   0.00000

 Dipole moment (field-independent basis, Debye):
    X=              4.0970    Y=              0.0079    Z=              0.0245  Tot=              4.0970
 Quadrupole moment (field-independent basis, Debye-Ang):
   XX=            -21.0818   YY=            -17.7994   ZZ=            -17.9927
   XY=             -0.0362   XZ=              0.1065   YZ=              0.1068

 Normal termination of Gaussian 09 at Wed Aug 26 23:49:15 2020.
