 Gaussian 09, Revision D.01,
 Gaussian 09:  ES64L-G09RevD.01 24-Apr-2013

 --------------------
 #p B2PLYPD3/Def2QZVP
 --------------------

 ------------
 cyanomethane
 ------------
 Symbolic Z-matrix:
 Charge =  0 Multiplicity = 1

                         Standard orientation:
 ---------------------------------------------------------------------
 Center     Atomic      Atomic             Coordinates (Angstroms)
 Number     Number       Type             X           Y           Z
 ---------------------------------------------------------------------
      1          6           0        1.168053    0.012765   -0.008506
      2          6           0       -0.289047   -0.036095    0.005394
      3          7           0       -1.435437    0.011686    0.003273
      4          1           0        1.660866    0.041889    1.015509
      5          1           0        1.485590    0.920732   -0.527777
      6          1           0        1.627571   -0.904439   -0.491967
 ---------------------------------------------------------------------

 SCF Done:  E(RB2PLYPD3) =  -132.531422806     A.U. after   12 cycles
 E2(B2PLYPD3) =    -0.1804286864D+00 E(B2PLYPD3) =    -0.13271185149292D+03

 The electronic state is 1-A.
 Alpha  occ. eigenvalues --  -14.84167 -10.68021 -10.66252  -1.04520  -0.88388
 Alpha  occ. eigenvalues --   -0.59983  -0.53738  -0.51821  -0.44925  -0.39338
 Alpha  occ. eigenvalues --   -0.39118
 Alpha virt. eigenvalues --    0.03573   0.07155   0.07717   0.10189   0.11553
 Alpha virt. eigenvalues --    0.11797   0.15349   0.16577   0.16837   0.19956
 Alpha virt. eigenvalues --    0.20101   0.25460   0.32361   0.33841   0.34725

 Mulliken charges:
               1
     1  C   -0.084904
     2  C    0.002267
     3  N   -0.200388
     4  H    0.089621
     5  H    0.100885
     6  H    0.092518
 Sum of Mulliken charges =   0.00000

 Dipole moment (field-independent basis, Debye):
    X=              4.1118    Y=             -0.0068    Z=              0.0025  Tot=              4.1118
 Quadrupole moment (field-independent basis, Debye-Ang):
   XX=            -20.8345   YY=            -17.7273   ZZ=            -17.9749
   XY=             -0.0163   XZ=              0.1296   YZ=             -0.0452

 Normal termination of Gaussian 09 at Wed Aug 26 11:08:10 2020.
