 Gaussian 09, Revision D.01,
 Gaussian 09:  ES64L-G09RevD.01 24-Apr-2013

 --------------------
 #p B2PLYPD3/Def2QZVP
 --------------------

 ------------
 cyanomethane
 ------------
 Symbolic Z-matrix:
 Charge =  0 Multiplicity = 1

                         Standard orientation:
 ---------------------------------------------------------------------
 Center     Atomic      Atomic             Coordinates (Angstroms)
 Number     Number       Type             X           Y           Z
 ---------------------------------------------------------------------
      1          6           0       -1.164325   -0.028019   -0.003197
      2          6           0        0.284680    0.024378   -0.004277
      3          7           0        1.424374   -0.007294    0.004141
      4          1           0       -1.586272    0.060771    1.013041
      5          1           0       -1.525115   -0.872129   -0.467159
      6          1           0       -1.581368    0.884265   -0.530030
 ---------------------------------------------------------------------

 SCF Done:  E(RB2PLYPD3) =  -132.531989983     A.U. after   11 cycles
 E2(B2PLYPD3) =    -0.1793248742D+00 E(B2PLYPD3) =    -0.13271131485688D+03

 The electronic state is 1-A.
 Alpha  occ. eigenvalues --  -14.83848 -10.66914 -10.65862  -1.04765  -0.89316
 Alpha  occ. eigenvalues --   -0.60325  -0.55045  -0.52311  -0.44825  -0.39627
 Alpha  occ. eigenvalues --   -0.39166
 Alpha virt. eigenvalues --    0.03762   0.07673   0.08347   0.10155   0.11479
 Alpha virt. eigenvalues --    0.11923   0.15553   0.16230   0.17095   0.19966
 Alpha virt. eigenvalues --    0.20079   0.25589   0.32713   0.33876   0.35610

 Mulliken charges:
               1
     1  C   -0.077559
     2  C   -0.001205
     3  N   -0.198377
     4  H    0.090661
     5  H    0.100653
     6  H    0.085827
 Sum of Mulliken charges =   0.00000

 Dipole moment (field-independent basis, Debye):
    X=             -4.1023    Y=              0.0181    Z=             -0.0015  Tot=              4.1023
 Quadrupole moment (field-independent basis, Debye-Ang):
   XX=            -20.8483   YY=            -17.6947   ZZ=            -17.7917
   XY=             -0.0242   XZ=             -0.0632   YZ=              0.0996

 Normal termination of Gaussian 09 at Wed Aug 26 11:54:59 2020.
