 Gaussian 09, Revision D.01,
 Gaussian 09:  ES64L-G09RevD.01 24-Apr-2013

 --------------------
 #p B2PLYPD3/Def2QZVP
 --------------------

 ------------
 cyanomethane
 ------------
 Symbolic Z-matrix:
 Charge =  0 Multiplicity = 1

                         Standard orientation:
 ---------------------------------------------------------------------
 Center     Atomic      Atomic             Coordinates (Angstroms)
 Number     Number       Type             X           Y           Z
 ---------------------------------------------------------------------
      1          6           0       -1.170460   -0.001590   -0.002670
      2          6           0        0.278483    0.015682   -0.009925
      3          7           0        1.433473   -0.010556    0.003750
      4          1           0       -1.531416    1.028362   -0.127215
      5          1           0       -1.550556   -0.391221    0.960205
      6          1           0       -1.600481   -0.647803   -0.783666
 ---------------------------------------------------------------------

 SCF Done:  E(RB2PLYPD3) =  -132.534618672     A.U. after   12 cycles
 E2(B2PLYPD3) =    -0.1807349331D+00 E(B2PLYPD3) =    -0.13271535360519D+03

 The electronic state is 1-A.
 Alpha  occ. eigenvalues --  -14.84254 -10.67403 -10.66300  -1.04129  -0.89060
 Alpha  occ. eigenvalues --   -0.59958  -0.53931  -0.53149  -0.44847  -0.39041
 Alpha  occ. eigenvalues --   -0.38940
 Alpha virt. eigenvalues --    0.03693   0.07488   0.07824   0.10142   0.11443
 Alpha virt. eigenvalues --    0.11636   0.15449   0.16171   0.16700   0.20051
 Alpha virt. eigenvalues --    0.20140   0.25518   0.32725   0.34260   0.34627

 Mulliken charges:
               1
     1  C   -0.084236
     2  C    0.000436
     3  N   -0.205934
     4  H    0.097898
     5  H    0.095375
     6  H    0.096462
 Sum of Mulliken charges =   0.00000

 Dipole moment (field-independent basis, Debye):
    X=             -4.1237    Y=              0.0087    Z=              0.0051  Tot=              4.1237
 Quadrupole moment (field-independent basis, Debye-Ang):
   XX=            -20.9683   YY=            -17.7129   ZZ=            -17.8542
   XY=              0.1193   XZ=             -0.0178   YZ=              0.0056

 Normal termination of Gaussian 09 at Wed Aug 26 23:40:49 2020.
