 Gaussian 09, Revision D.01,
 Gaussian 09:  ES64L-G09RevD.01 24-Apr-2013

 --------------------
 #p B2PLYPD3/Def2QZVP
 --------------------

 ------------
 cyanomethane
 ------------
 Symbolic Z-matrix:
 Charge =  0 Multiplicity = 1

                         Standard orientation:
 ---------------------------------------------------------------------
 Center     Atomic      Atomic             Coordinates (Angstroms)
 Number     Number       Type             X           Y           Z
 ---------------------------------------------------------------------
      1          6           0       -1.153105   -0.008590    0.026973
      2          6           0        0.284140    0.025597    0.004159
      3          7           0        1.418797   -0.009981   -0.008227
      4          1           0       -1.529745   -0.345507    1.012088
      5          1           0       -1.576543   -0.787825   -0.850513
      6          1           0       -1.611503    1.101159   -0.290780
 ---------------------------------------------------------------------

 SCF Done:  E(RB2PLYPD3) =  -132.510680760     A.U. after   12 cycles
 E2(B2PLYPD3) =    -0.1806132457D+00 E(B2PLYPD3) =    -0.13269129400576D+03

 The electronic state is 1-A.
 Alpha  occ. eigenvalues --  -14.83741 -10.69930 -10.65723  -1.05018  -0.87530
 Alpha  occ. eigenvalues --   -0.58759  -0.52964  -0.50427  -0.44827  -0.39419
 Alpha  occ. eigenvalues --   -0.38777
 Alpha virt. eigenvalues --    0.02920   0.05847   0.07355   0.10111   0.11867
 Alpha virt. eigenvalues --    0.12400   0.15336   0.16173   0.16623   0.19918
 Alpha virt. eigenvalues --    0.20048   0.25596   0.30899   0.31445   0.34326

 Mulliken charges:
               1
     1  C   -0.126729
     2  C    0.006144
     3  N   -0.191957
     4  H    0.115641
     5  H    0.097890
     6  H    0.099011
 Sum of Mulliken charges =   0.00000

 Dipole moment (field-independent basis, Debye):
    X=             -4.0122    Y=             -0.0013    Z=              0.0325  Tot=              4.0124
 Quadrupole moment (field-independent basis, Debye-Ang):
   XX=            -21.3402   YY=            -17.8020   ZZ=            -17.7386
   XY=              0.0590   XZ=              0.0708   YZ=             -0.0985

 Normal termination of Gaussian 09 at Wed Aug 26 23:51:47 2020.
