 Gaussian 09, Revision D.01,
 Gaussian 09:  ES64L-G09RevD.01 24-Apr-2013

 --------------------
 #p B2PLYPD3/Def2QZVP
 --------------------

 ------------
 cyanomethane
 ------------
 Symbolic Z-matrix:
 Charge =  0 Multiplicity = 1

                         Standard orientation:
 ---------------------------------------------------------------------
 Center     Atomic      Atomic             Coordinates (Angstroms)
 Number     Number       Type             X           Y           Z
 ---------------------------------------------------------------------
      1          6           0        1.206757   -0.011629    0.012004
      2          6           0       -0.276709    0.062101   -0.022528
      3          7           0       -1.447001   -0.033354    0.002791
      4          1           0        1.525845    0.919379   -0.313177
      5          1           0        1.610368   -0.792323   -0.617363
      6          1           0        1.412502   -0.196416    0.974149
 ---------------------------------------------------------------------

 SCF Done:  E(RB2PLYPD3) =  -132.523194806     A.U. after   12 cycles
 E2(B2PLYPD3) =    -0.1818093894D+00 E(B2PLYPD3) =    -0.13270500419557D+03

 The electronic state is 1-A.
 Alpha  occ. eigenvalues --  -14.84697 -10.66806 -10.65972  -1.03257  -0.90217
 Alpha  occ. eigenvalues --   -0.59183  -0.56517  -0.54297  -0.44701  -0.38770
 Alpha  occ. eigenvalues --   -0.38691
 Alpha virt. eigenvalues --    0.03767   0.07793   0.08722   0.10114   0.10907
 Alpha virt. eigenvalues --    0.11144   0.15229   0.15349   0.16671   0.20103
 Alpha virt. eigenvalues --    0.20241   0.25039   0.32439   0.34929   0.35748

 Mulliken charges:
               1
     1  C   -0.082796
     2  C   -0.001103
     3  N   -0.216619
     4  H    0.098958
     5  H    0.095614
     6  H    0.105946
 Sum of Mulliken charges =   0.00000

 Dipole moment (field-independent basis, Debye):
    X=              4.1562    Y=              0.0415    Z=              0.0111  Tot=              4.1564
 Quadrupole moment (field-independent basis, Debye-Ang):
   XX=            -21.0482   YY=            -17.7064   ZZ=            -17.7533
   XY=             -0.2038   XZ=             -0.0972   YZ=             -0.0400

 Normal termination of Gaussian 09 at Wed Aug 26 22:25:23 2020.
