 Gaussian 09, Revision D.01,
 Gaussian 09:  ES64L-G09RevD.01 24-Apr-2013

 --------------------
 #p B2PLYPD3/Def2QZVP
 --------------------

 ------------
 cyanomethane
 ------------
 Symbolic Z-matrix:
 Charge =  0 Multiplicity = 1

                         Standard orientation:
 ---------------------------------------------------------------------
 Center     Atomic      Atomic             Coordinates (Angstroms)
 Number     Number       Type             X           Y           Z
 ---------------------------------------------------------------------
      1          6           0        1.176862    0.011988   -0.005707
      2          6           0       -0.293541    0.005132   -0.038524
      3          7           0       -1.445076   -0.013889    0.035087
      4          1           0        1.837400   -0.295615    0.937983
      5          1           0        1.428819    1.015581   -0.220463
      6          1           0        1.549381   -0.725465   -0.697743
 ---------------------------------------------------------------------

 SCF Done:  E(RB2PLYPD3) =  -132.518483978     A.U. after   13 cycles
 E2(B2PLYPD3) =    -0.1812950407D+00 E(B2PLYPD3) =    -0.13269977901832D+03

 The electronic state is 1-A.
 Alpha  occ. eigenvalues --  -14.84452 -10.67755 -10.66605  -1.04302  -0.88714
 Alpha  occ. eigenvalues --   -0.60200  -0.55524  -0.50140  -0.44998  -0.39419
 Alpha  occ. eigenvalues --   -0.38770
 Alpha virt. eigenvalues --    0.03163   0.06362   0.08602   0.10126   0.11079
 Alpha virt. eigenvalues --    0.11938   0.15236   0.15897   0.17801   0.19910
 Alpha virt. eigenvalues --    0.20594   0.25267   0.31594   0.33510   0.35333

 Mulliken charges:
               1
     1  C   -0.086683
     2  C    0.006949
     3  N   -0.203182
     4  H    0.085610
     5  H    0.101971
     6  H    0.095336
 Sum of Mulliken charges =   0.00000

 Dipole moment (field-independent basis, Debye):
    X=              4.1371    Y=              0.0077    Z=             -0.0840  Tot=              4.1380
 Quadrupole moment (field-independent basis, Debye-Ang):
   XX=            -20.6263   YY=            -17.6425   ZZ=            -18.2556
   XY=             -0.2899   XZ=              0.3560   YZ=              0.0496

 Normal termination of Gaussian 09 at Wed Aug 26 22:45:40 2020.
