 Gaussian 09, Revision D.01,
 Gaussian 09:  ES64L-G09RevD.01 24-Apr-2013

 --------------------
 #p B2PLYPD3/Def2QZVP
 --------------------

 ------------
 cyanomethane
 ------------
 Symbolic Z-matrix:
 Charge =  0 Multiplicity = 1

                         Standard orientation:
 ---------------------------------------------------------------------
 Center     Atomic      Atomic             Coordinates (Angstroms)
 Number     Number       Type             X           Y           Z
 ---------------------------------------------------------------------
      1          6           0       -1.189386   -0.006387   -0.006896
      2          6           0        0.267574    0.026834    0.023555
      3          7           0        1.443295   -0.016342   -0.009259
      4          1           0       -1.471282    0.872351   -0.479795
      5          1           0       -1.557140   -0.032425    0.969119
      6          1           0       -1.543762   -0.848209   -0.524467
 ---------------------------------------------------------------------

 SCF Done:  E(RB2PLYPD3) =  -132.528555001     A.U. after   12 cycles
 E2(B2PLYPD3) =    -0.1819197948D+00 E(B2PLYPD3) =    -0.13271047479609D+03

 The electronic state is 1-A.
 Alpha  occ. eigenvalues --  -14.84747 -10.66825 -10.65808  -1.03217  -0.90451
 Alpha  occ. eigenvalues --   -0.60079  -0.55585  -0.54926  -0.44788  -0.38593
 Alpha  occ. eigenvalues --   -0.38577
 Alpha virt. eigenvalues --    0.03899   0.07778   0.08346   0.10131   0.11043
 Alpha virt. eigenvalues --    0.11195   0.15379   0.15735   0.16498   0.20204
 Alpha virt. eigenvalues --    0.20226   0.25379   0.32742   0.35242   0.35245

 Mulliken charges:
               1
     1  C   -0.071611
     2  C    0.000496
     3  N   -0.218177
     4  H    0.098558
     5  H    0.094234
     6  H    0.096501
 Sum of Mulliken charges =   0.00000

 Dipole moment (field-independent basis, Debye):
    X=             -4.1697    Y=              0.0236    Z=              0.0135  Tot=              4.1698
 Quadrupole moment (field-independent basis, Debye-Ang):
   XX=            -20.9782   YY=            -17.7070   ZZ=            -17.7776
   XY=              0.1298   XZ=             -0.0026   YZ=             -0.0178

 Normal termination of Gaussian 09 at Wed Aug 26 10:36:00 2020.
