 Gaussian 09, Revision D.01,
 Gaussian 09:  ES64L-G09RevD.01 24-Apr-2013

 --------------------
 #p B2PLYPD3/Def2QZVP
 --------------------

 ------------
 cyanomethane
 ------------
 Symbolic Z-matrix:
 Charge =  0 Multiplicity = 1

                         Standard orientation:
 ---------------------------------------------------------------------
 Center     Atomic      Atomic             Coordinates (Angstroms)
 Number     Number       Type             X           Y           Z
 ---------------------------------------------------------------------
      1          6           0        1.176556   -0.017024   -0.010145
      2          6           0       -0.280413   -0.054552   -0.031147
      3          7           0       -1.450343    0.046221    0.013670
      4          1           0        1.463164   -0.769080   -0.570101
      5          1           0        1.504501   -0.135383    1.033176
      6          1           0        1.807882    1.010368   -0.311008
 ---------------------------------------------------------------------

 SCF Done:  E(RB2PLYPD3) =  -132.505631020     A.U. after   13 cycles
 E2(B2PLYPD3) =    -0.1831345567D+00 E(B2PLYPD3) =    -0.13268876557645D+03

 The electronic state is 1-A.
 Alpha  occ. eigenvalues --  -14.85043 -10.67538 -10.67102  -1.03507  -0.89418
 Alpha  occ. eigenvalues --   -0.60077  -0.56196  -0.50340  -0.45089  -0.38917
 Alpha  occ. eigenvalues --   -0.38260
 Alpha virt. eigenvalues --    0.02683   0.05921   0.08625   0.09921   0.10828
 Alpha virt. eigenvalues --    0.11812   0.15321   0.15654   0.17632   0.19977
 Alpha virt. eigenvalues --    0.20618   0.25527   0.30806   0.33313   0.35095

 Mulliken charges:
               1
     1  C   -0.088822
     2  C    0.007038
     3  N   -0.212010
     4  H    0.109671
     5  H    0.094962
     6  H    0.089160
 Sum of Mulliken charges =   0.00000

 Dipole moment (field-independent basis, Debye):
    X=              4.1349    Y=             -0.1096    Z=              0.0432  Tot=              4.1366
 Quadrupole moment (field-independent basis, Debye-Ang):
   XX=            -20.7473   YY=            -17.9017   ZZ=            -17.9912
   XY=              0.4038   XZ=              0.1522   YZ=              0.1745

 Normal termination of Gaussian 09 at Wed Aug 26 23:08:55 2020.
