 Gaussian 09, Revision D.01,
 Gaussian 09:  ES64L-G09RevD.01 24-Apr-2013

 --------------------
 #p B2PLYPD3/Def2QZVP
 --------------------

 ------------
 cyanomethane
 ------------
 Symbolic Z-matrix:
 Charge =  0 Multiplicity = 1

                         Standard orientation:
 ---------------------------------------------------------------------
 Center     Atomic      Atomic             Coordinates (Angstroms)
 Number     Number       Type             X           Y           Z
 ---------------------------------------------------------------------
      1          6           0        1.184570   -0.017370   -0.034378
      2          6           0       -0.300444    0.028904   -0.003488
      3          7           0       -1.439775   -0.010297    0.012334
      4          1           0        1.494678   -0.696922   -0.697030
      5          1           0        1.665200   -0.308522    1.012058
      6          1           0        1.613788    1.008319   -0.174174
 ---------------------------------------------------------------------

 SCF Done:  E(RB2PLYPD3) =  -132.521976448     A.U. after   12 cycles
 E2(B2PLYPD3) =    -0.1796521268D+00 E(B2PLYPD3) =    -0.13270162857467D+03

 The electronic state is 1-A.
 Alpha  occ. eigenvalues --  -14.83979 -10.67692 -10.66119  -1.04757  -0.88551
 Alpha  occ. eigenvalues --   -0.59735  -0.55610  -0.50688  -0.44853  -0.39902
 Alpha  occ. eigenvalues --   -0.39182
 Alpha virt. eigenvalues --    0.03482   0.07166   0.08681   0.10232   0.11186
 Alpha virt. eigenvalues --    0.11930   0.15238   0.16538   0.17006   0.19850
 Alpha virt. eigenvalues --    0.20100   0.24888   0.31783   0.33105   0.35734

 Mulliken charges:
               1
     1  C   -0.084654
     2  C   -0.001069
     3  N   -0.196526
     4  H    0.107819
     5  H    0.081286
     6  H    0.093144
 Sum of Mulliken charges =   0.00000

 Dipole moment (field-independent basis, Debye):
    X=              4.1124    Y=              0.0222    Z=             -0.0185  Tot=              4.1125
 Quadrupole moment (field-independent basis, Debye-Ang):
   XX=            -20.8207   YY=            -17.7176   ZZ=            -17.9245
   XY=              0.0095   XZ=              0.2090   YZ=              0.1756

 Normal termination of Gaussian 09 at Wed Aug 26 21:42:02 2020.
