 Gaussian 09, Revision D.01,
 Gaussian 09:  ES64L-G09RevD.01 24-Apr-2013

 --------------------
 #p B2PLYPD3/Def2QZVP
 --------------------

 ------------
 cyanomethane
 ------------
 Symbolic Z-matrix:
 Charge =  0 Multiplicity = 1

                         Standard orientation:
 ---------------------------------------------------------------------
 Center     Atomic      Atomic             Coordinates (Angstroms)
 Number     Number       Type             X           Y           Z
 ---------------------------------------------------------------------
      1          6           0        1.175649   -0.000626    0.004055
      2          6           0       -0.274767   -0.006481   -0.017144
      3          7           0       -1.437492    0.003383    0.004752
      4          1           0        1.567187    0.991121   -0.288536
      5          1           0        1.588672   -0.755439   -0.663704
      6          1           0        1.501289   -0.216718    0.997509
 ---------------------------------------------------------------------

 SCF Done:  E(RB2PLYPD3) =  -132.534416837     A.U. after   12 cycles
 E2(B2PLYPD3) =    -0.1811760307D+00 E(B2PLYPD3) =    -0.13271559286739D+03

 The electronic state is 1-A.
 Alpha  occ. eigenvalues --  -14.84435 -10.67022 -10.66495  -1.03806  -0.89415
 Alpha  occ. eigenvalues --   -0.59990  -0.54209  -0.53742  -0.44839  -0.38857
 Alpha  occ. eigenvalues --   -0.38827
 Alpha virt. eigenvalues --    0.03759   0.07579   0.07879   0.10163   0.11371
 Alpha virt. eigenvalues --    0.11431   0.15436   0.16158   0.16495   0.20120
 Alpha virt. eigenvalues --    0.20144   0.25473   0.32645   0.34529   0.34807

 Mulliken charges:
               1
     1  C   -0.080717
     2  C    0.000473
     3  N   -0.210239
     4  H    0.096042
     5  H    0.095853
     6  H    0.098589
 Sum of Mulliken charges =   0.00000

 Dipole moment (field-independent basis, Debye):
    X=              4.1417    Y=             -0.0109    Z=              0.0100  Tot=              4.1418
 Quadrupole moment (field-independent basis, Debye-Ang):
   XX=            -20.9732   YY=            -17.7487   ZZ=            -17.8110
   XY=              0.0023   XZ=             -0.0034   YZ=             -0.0028

 Normal termination of Gaussian 09 at Thu Aug 27 00:05:14 2020.
