 Gaussian 09, Revision D.01,
 Gaussian 09:  ES64L-G09RevD.01 24-Apr-2013

 --------------------
 #p B2PLYPD3/Def2QZVP
 --------------------

 ------------
 cyanomethane
 ------------
 Symbolic Z-matrix:
 Charge =  0 Multiplicity = 1

                         Standard orientation:
 ---------------------------------------------------------------------
 Center     Atomic      Atomic             Coordinates (Angstroms)
 Number     Number       Type             X           Y           Z
 ---------------------------------------------------------------------
      1          6           0        1.184452    0.002856   -0.013112
      2          6           0       -0.283111    0.014299   -0.010158
      3          7           0       -1.436219   -0.010168    0.009136
      4          1           0        1.594660   -0.550210    0.862702
      5          1           0        1.517447    0.993287    0.069957
      6          1           0        1.533381   -0.474830   -0.856993
 ---------------------------------------------------------------------

 SCF Done:  E(RB2PLYPD3) =  -132.531938632     A.U. after   11 cycles
 E2(B2PLYPD3) =    -0.1801010529D+00 E(B2PLYPD3) =    -0.13271203968485D+03

 The electronic state is 1-A.
 Alpha  occ. eigenvalues --  -14.84176 -10.66442 -10.66249  -1.04141  -0.89684
 Alpha  occ. eigenvalues --   -0.59873  -0.55757  -0.53110  -0.44774  -0.39330
 Alpha  occ. eigenvalues --   -0.39039
 Alpha virt. eigenvalues --    0.03808   0.07864   0.08696   0.10212   0.11149
 Alpha virt. eigenvalues --    0.11560   0.15393   0.16223   0.16578   0.20025
 Alpha virt. eigenvalues --    0.20143   0.25153   0.32704   0.34351   0.35720

 Mulliken charges:
               1
     1  C   -0.074945
     2  C   -0.002616
     3  N   -0.205974
     4  H    0.088094
     5  H    0.097249
     6  H    0.098192
 Sum of Mulliken charges =   0.00000

 Dipole moment (field-independent basis, Debye):
    X=              4.1388    Y=              0.0139    Z=             -0.0122  Tot=              4.1388
 Quadrupole moment (field-independent basis, Debye-Ang):
   XX=            -20.9031   YY=            -17.6894   ZZ=            -17.7811
   XY=             -0.1033   XZ=              0.1014   YZ=              0.0813

 Normal termination of Gaussian 09 at Thu Aug 27 00:13:27 2020.
