 Gaussian 09, Revision D.01,
 Gaussian 09:  ES64L-G09RevD.01 24-Apr-2013

 --------------------
 #p B2PLYPD3/Def2QZVP
 --------------------

 ------------
 cyanomethane
 ------------
 Symbolic Z-matrix:
 Charge =  0 Multiplicity = 1

                         Standard orientation:
 ---------------------------------------------------------------------
 Center     Atomic      Atomic             Coordinates (Angstroms)
 Number     Number       Type             X           Y           Z
 ---------------------------------------------------------------------
      1          6           0       -1.184625    0.001810    0.000180
      2          6           0        0.283725    0.034381    0.001009
      3          7           0        1.431623   -0.010107    0.001460
      4          1           0       -1.547001   -0.244497    1.017966
      5          1           0       -1.443283   -0.894436   -0.676416
      6          1           0       -1.625677    0.992536   -0.358908
 ---------------------------------------------------------------------

 SCF Done:  E(RB2PLYPD3) =  -132.529485950     A.U. after   12 cycles
 E2(B2PLYPD3) =    -0.1806310103D+00 E(B2PLYPD3) =    -0.13271011695997D+03

 The electronic state is 1-A.
 Alpha  occ. eigenvalues --  -14.83948 -10.68599 -10.66075  -1.04269  -0.88145
 Alpha  occ. eigenvalues --   -0.58525  -0.53489  -0.52696  -0.44652  -0.39188
 Alpha  occ. eigenvalues --   -0.38925
 Alpha virt. eigenvalues --    0.03453   0.07537   0.07692   0.10208   0.11427
 Alpha virt. eigenvalues --    0.11784   0.15064   0.15784   0.16488   0.19986
 Alpha virt. eigenvalues --    0.20129   0.25137   0.32069   0.33222   0.34359

 Mulliken charges:
               1
     1  C   -0.111628
     2  C   -0.000463
     3  N   -0.202785
     4  H    0.103980
     5  H    0.104979
     6  H    0.105918
 Sum of Mulliken charges =   0.00000

 Dipole moment (field-independent basis, Debye):
    X=             -4.0924    Y=             -0.0095    Z=              0.0208  Tot=              4.0925
 Quadrupole moment (field-independent basis, Debye-Ang):
   XX=            -21.3273   YY=            -17.5801   ZZ=            -17.8793
   XY=             -0.0315   XZ=             -0.1014   YZ=             -0.0268

 Normal termination of Gaussian 09 at Wed Aug 26 13:12:58 2020.
