 Gaussian 09, Revision D.01,
 Gaussian 09:  ES64L-G09RevD.01 24-Apr-2013

 --------------------
 #p B2PLYPD3/Def2QZVP
 --------------------

 ------------
 cyanomethane
 ------------
 Symbolic Z-matrix:
 Charge =  0 Multiplicity = 1

                         Standard orientation:
 ---------------------------------------------------------------------
 Center     Atomic      Atomic             Coordinates (Angstroms)
 Number     Number       Type             X           Y           Z
 ---------------------------------------------------------------------
      1          6           0       -1.180541   -0.000246    0.001292
      2          6           0        0.278184    0.035668    0.002703
      3          7           0        1.423545   -0.011512    0.002452
      4          1           0       -1.540171   -0.359828    0.987423
      5          1           0       -1.416427   -0.773988   -0.780132
      6          1           0       -1.594080    1.001867   -0.248425
 ---------------------------------------------------------------------

 SCF Done:  E(RB2PLYPD3) =  -132.532790282     A.U. after   12 cycles
 E2(B2PLYPD3) =    -0.1801247528D+00 E(B2PLYPD3) =    -0.13271291503438D+03

 The electronic state is 1-A.
 Alpha  occ. eigenvalues --  -14.83787 -10.67951 -10.65864  -1.04347  -0.88748
 Alpha  occ. eigenvalues --   -0.58559  -0.54038  -0.53406  -0.44588  -0.39196
 Alpha  occ. eigenvalues --   -0.38964
 Alpha virt. eigenvalues --    0.03601   0.07841   0.07977   0.10205   0.11470
 Alpha virt. eigenvalues --    0.11792   0.15181   0.15708   0.16373   0.20013
 Alpha virt. eigenvalues --    0.20128   0.25314   0.32520   0.33593   0.34556

 Mulliken charges:
               1
     1  C   -0.109315
     2  C   -0.002838
     3  N   -0.202907
     4  H    0.104020
     5  H    0.105840
     6  H    0.105199
 Sum of Mulliken charges =   0.00000

 Dipole moment (field-independent basis, Debye):
    X=             -4.0845    Y=             -0.0019    Z=             -0.0019  Tot=              4.0845
 Quadrupole moment (field-independent basis, Debye-Ang):
   XX=            -21.3564   YY=            -17.5979   ZZ=            -17.7389
   XY=             -0.0209   XZ=             -0.0926   YZ=             -0.0140

 Normal termination of Gaussian 09 at Wed Aug 26 12:39:05 2020.
