 Gaussian 09, Revision D.01,
 Gaussian 09:  ES64L-G09RevD.01 24-Apr-2013

 --------------------
 #p B2PLYPD3/Def2QZVP
 --------------------

 ------------
 cyanomethane
 ------------
 Symbolic Z-matrix:
 Charge =  0 Multiplicity = 1

                         Standard orientation:
 ---------------------------------------------------------------------
 Center     Atomic      Atomic             Coordinates (Angstroms)
 Number     Number       Type             X           Y           Z
 ---------------------------------------------------------------------
      1          6           0       -1.195171   -0.044488   -0.000227
      2          6           0        0.293212    0.061805   -0.002948
      3          7           0        1.437036   -0.027763    0.003554
      4          1           0       -1.576308    0.017387    1.007982
      5          1           0       -1.530862   -0.901786   -0.518218
      6          1           0       -1.540331    0.974843   -0.495592
 ---------------------------------------------------------------------

 SCF Done:  E(RB2PLYPD3) =  -132.526699775     A.U. after   12 cycles
 E2(B2PLYPD3) =    -0.1803425861D+00 E(B2PLYPD3) =    -0.13270704236075D+03

 The electronic state is 1-A.
 Alpha  occ. eigenvalues --  -14.84024 -10.68001 -10.66156  -1.04348  -0.88306
 Alpha  occ. eigenvalues --   -0.59001  -0.55127  -0.51612  -0.44709  -0.39570
 Alpha  occ. eigenvalues --   -0.38946
 Alpha virt. eigenvalues --    0.03546   0.07618   0.08176   0.10040   0.11207
 Alpha virt. eigenvalues --    0.11651   0.15137   0.15412   0.17233   0.19929
 Alpha virt. eigenvalues --    0.20107   0.25142   0.31493   0.33321   0.35576

 Mulliken charges:
               1
     1  C   -0.100050
     2  C    0.000620
     3  N   -0.201916
     4  H    0.100085
     5  H    0.111239
     6  H    0.090021
 Sum of Mulliken charges =   0.00000

 Dipole moment (field-independent basis, Debye):
    X=             -4.0918    Y=              0.0402    Z=              0.0291  Tot=              4.0921
 Quadrupole moment (field-independent basis, Debye-Ang):
   XX=            -21.1833   YY=            -17.5975   ZZ=            -17.8942
   XY=              0.1392   XZ=             -0.1401   YZ=              0.1371

 Normal termination of Gaussian 09 at Wed Aug 26 23:42:22 2020.
