 Gaussian 09, Revision D.01,
 Gaussian 09:  ES64L-G09RevD.01 24-Apr-2013

 --------------------
 #p B2PLYPD3/Def2QZVP
 --------------------

 ------------
 cyanomethane
 ------------
 Symbolic Z-matrix:
 Charge =  0 Multiplicity = 1

                         Standard orientation:
 ---------------------------------------------------------------------
 Center     Atomic      Atomic             Coordinates (Angstroms)
 Number     Number       Type             X           Y           Z
 ---------------------------------------------------------------------
      1          6           0       -1.149790    0.020487   -0.011183
      2          6           0        0.287573   -0.045544   -0.050581
      3          7           0        1.417403    0.018256    0.028216
      4          1           0       -1.536197    1.064897   -0.005436
      5          1           0       -1.601087   -0.471945    0.929906
      6          1           0       -1.611228   -0.570401   -0.751403
 ---------------------------------------------------------------------

 SCF Done:  E(RB2PLYPD3) =  -132.529012649     A.U. after   11 cycles
 E2(B2PLYPD3) =    -0.1792924677D+00 E(B2PLYPD3) =    -0.13270830511676D+03

 The electronic state is 1-A.
 Alpha  occ. eigenvalues --  -14.83789 -10.67282 -10.65733  -1.05108  -0.88984
 Alpha  occ. eigenvalues --   -0.60675  -0.54493  -0.51537  -0.44925  -0.39740
 Alpha  occ. eigenvalues --   -0.39176
 Alpha virt. eigenvalues --    0.03480   0.07190   0.08341   0.10097   0.11577
 Alpha virt. eigenvalues --    0.12170   0.15628   0.16343   0.17457   0.19830
 Alpha virt. eigenvalues --    0.20110   0.26012   0.33005   0.33675   0.35013

 Mulliken charges:
               1
     1  C   -0.076656
     2  C    0.002038
     3  N   -0.193741
     4  H    0.097105
     5  H    0.080569
     6  H    0.090685
 Sum of Mulliken charges =   0.00000

 Dipole moment (field-independent basis, Debye):
    X=             -4.0771    Y=             -0.0630    Z=             -0.0396  Tot=              4.0778
 Quadrupole moment (field-independent basis, Debye-Ang):
   XX=            -20.7178   YY=            -17.5606   ZZ=            -18.0201
   XY=              0.0413   XZ=             -0.1990   YZ=              0.0668

 Normal termination of Gaussian 09 at Wed Aug 26 22:22:32 2020.
