 Gaussian 09, Revision D.01,
 Gaussian 09:  ES64L-G09RevD.01 24-Apr-2013

 --------------------
 #p B2PLYPD3/Def2QZVP
 --------------------

 ------------
 cyanomethane
 ------------
 Symbolic Z-matrix:
 Charge =  0 Multiplicity = 1

                         Standard orientation:
 ---------------------------------------------------------------------
 Center     Atomic      Atomic             Coordinates (Angstroms)
 Number     Number       Type             X           Y           Z
 ---------------------------------------------------------------------
      1          6           0        1.170335    0.007188    0.003559
      2          6           0       -0.281734    0.006182   -0.028829
      3          7           0       -1.428285   -0.004662    0.023020
      4          1           0        1.668150   -0.295333    0.955622
      5          1           0        1.518960    0.996397   -0.251375
      6          1           0        1.479281   -0.748650   -0.713769
 ---------------------------------------------------------------------

 SCF Done:  E(RB2PLYPD3) =  -132.532462030     A.U. after   12 cycles
 E2(B2PLYPD3) =    -0.1801022390D+00 E(B2PLYPD3) =    -0.13271256426913D+03

 The electronic state is 1-A.
 Alpha  occ. eigenvalues --  -14.84029 -10.67164 -10.66073  -1.04432  -0.89206
 Alpha  occ. eigenvalues --   -0.59951  -0.54854  -0.52446  -0.44807  -0.39300
 Alpha  occ. eigenvalues --   -0.39035
 Alpha virt. eigenvalues --    0.03688   0.07341   0.08431   0.10137   0.11423
 Alpha virt. eigenvalues --    0.11783   0.15473   0.15767   0.17248   0.20005
 Alpha virt. eigenvalues --    0.20188   0.25533   0.32863   0.34131   0.34913

 Mulliken charges:
               1
     1  C   -0.085688
     2  C    0.000134
     3  N   -0.202543
     4  H    0.091696
     5  H    0.099820
     6  H    0.096581
 Sum of Mulliken charges =   0.00000

 Dipole moment (field-independent basis, Debye):
    X=              4.1110    Y=             -0.0110    Z=             -0.0384  Tot=              4.1112
 Quadrupole moment (field-independent basis, Debye-Ang):
   XX=            -20.9338   YY=            -17.6010   ZZ=            -17.9177
   XY=             -0.0815   XZ=              0.2641   YZ=              0.0118

 Normal termination of Gaussian 09 at Wed Aug 26 15:19:53 2020.
