 Gaussian 09, Revision D.01,
 Gaussian 09:  ES64L-G09RevD.01 24-Apr-2013

 --------------------
 #p B2PLYPD3/Def2QZVP
 --------------------

 ------------
 cyanomethane
 ------------
 Symbolic Z-matrix:
 Charge =  0 Multiplicity = 1

                         Standard orientation:
 ---------------------------------------------------------------------
 Center     Atomic      Atomic             Coordinates (Angstroms)
 Number     Number       Type             X           Y           Z
 ---------------------------------------------------------------------
      1          6           0        1.188421   -0.006933    0.000511
      2          6           0       -0.276047    0.005423   -0.015785
      3          7           0       -1.439256   -0.003550    0.005227
      4          1           0        1.534037    0.936086   -0.426625
      5          1           0        1.571867   -0.840476   -0.551819
      6          1           0        1.494647   -0.061701    1.033500
 ---------------------------------------------------------------------

 SCF Done:  E(RB2PLYPD3) =  -132.534432200     A.U. after   12 cycles
 E2(B2PLYPD3) =    -0.1811077223D+00 E(B2PLYPD3) =    -0.13271553992276D+03

 The electronic state is 1-A.
 Alpha  occ. eigenvalues --  -14.84369 -10.66996 -10.66468  -1.03699  -0.89406
 Alpha  occ. eigenvalues --   -0.59371  -0.54577  -0.54106  -0.44725  -0.38911
 Alpha  occ. eigenvalues --   -0.38789
 Alpha virt. eigenvalues --    0.03786   0.07961   0.08009   0.10183   0.11215
 Alpha virt. eigenvalues --    0.11357   0.15291   0.15864   0.16373   0.20118
 Alpha virt. eigenvalues --    0.20160   0.25185   0.32574   0.34438   0.34979

 Mulliken charges:
               1
     1  C   -0.087354
     2  C   -0.001689
     3  N   -0.211250
     4  H    0.098746
     5  H    0.100970
     6  H    0.100577
 Sum of Mulliken charges =   0.00000

 Dipole moment (field-independent basis, Debye):
    X=              4.1425    Y=              0.0084    Z=              0.0034  Tot=              4.1425
 Quadrupole moment (field-independent basis, Debye-Ang):
   XX=            -21.1133   YY=            -17.7181   ZZ=            -17.7572
   XY=             -0.0348   XZ=             -0.0010   YZ=              0.0196

 Normal termination of Gaussian 09 at Thu Aug 27 00:13:04 2020.
