 Gaussian 09, Revision D.01,
 Gaussian 09:  ES64L-G09RevD.01 24-Apr-2013

 --------------------
 #p B2PLYPD3/Def2QZVP
 --------------------

 ------------
 cyanomethane
 ------------
 Symbolic Z-matrix:
 Charge =  0 Multiplicity = 1

                         Standard orientation:
 ---------------------------------------------------------------------
 Center     Atomic      Atomic             Coordinates (Angstroms)
 Number     Number       Type             X           Y           Z
 ---------------------------------------------------------------------
      1          6           0        1.174802   -0.015468   -0.002190
      2          6           0       -0.279906    0.010847   -0.039811
      3          7           0       -1.426378   -0.006484    0.022962
      4          1           0        1.564804   -0.016548    1.026970
      5          1           0        1.497412    0.913847   -0.431965
      6          1           0        1.553057   -0.824186   -0.503738
 ---------------------------------------------------------------------

 SCF Done:  E(RB2PLYPD3) =  -132.532253365     A.U. after   12 cycles
 E2(B2PLYPD3) =    -0.1797179623D+00 E(B2PLYPD3) =    -0.13271197132778D+03

 The electronic state is 1-A.
 Alpha  occ. eigenvalues --  -14.83994 -10.66335 -10.66010  -1.04374  -0.89816
 Alpha  occ. eigenvalues --   -0.60062  -0.55511  -0.53312  -0.44760  -0.39397
 Alpha  occ. eigenvalues --   -0.39060
 Alpha virt. eigenvalues --    0.03793   0.07912   0.08720   0.10152   0.11277
 Alpha virt. eigenvalues --    0.11677   0.15534   0.15870   0.16950   0.20018
 Alpha virt. eigenvalues --    0.20127   0.25503   0.33073   0.34251   0.35568

 Mulliken charges:
               1
     1  C   -0.077204
     2  C   -0.002094
     3  N   -0.203790
     4  H    0.091043
     5  H    0.093445
     6  H    0.098600
 Sum of Mulliken charges =   0.00000

 Dipole moment (field-independent basis, Debye):
    X=              4.1142    Y=              0.0238    Z=             -0.0307  Tot=              4.1144
 Quadrupole moment (field-independent basis, Debye-Ang):
   XX=            -20.9328   YY=            -17.6357   ZZ=            -17.7619
   XY=             -0.0451   XZ=              0.1728   YZ=              0.0519

 Normal termination of Gaussian 09 at Wed Aug 26 15:59:00 2020.
