 Gaussian 09, Revision D.01,
 Gaussian 09:  ES64L-G09RevD.01 24-Apr-2013

 --------------------
 #p B2PLYPD3/Def2QZVP
 --------------------

 ------------
 cyanomethane
 ------------
 Symbolic Z-matrix:
 Charge =  0 Multiplicity = 1

                         Standard orientation:
 ---------------------------------------------------------------------
 Center     Atomic      Atomic             Coordinates (Angstroms)
 Number     Number       Type             X           Y           Z
 ---------------------------------------------------------------------
      1          6           0        1.178672    0.005495   -0.003692
      2          6           0       -0.269781   -0.019719    0.038031
      3          7           0       -1.430877    0.015109   -0.020410
      4          1           0        1.505538   -0.033988    1.009854
      5          1           0        1.588360    0.935711   -0.510468
      6          1           0        1.468892   -0.922143   -0.562552
 ---------------------------------------------------------------------

 SCF Done:  E(RB2PLYPD3) =  -132.530214004     A.U. after   12 cycles
 E2(B2PLYPD3) =    -0.1815240774D+00 E(B2PLYPD3) =    -0.13271173808178D+03

 The electronic state is 1-A.
 Alpha  occ. eigenvalues --  -14.84308 -10.67636 -10.66346  -1.03739  -0.89191
 Alpha  occ. eigenvalues --   -0.58989  -0.54512  -0.53349  -0.44707  -0.38731
 Alpha  occ. eigenvalues --   -0.38634
 Alpha virt. eigenvalues --    0.03523   0.07157   0.08205   0.10097   0.11310
 Alpha virt. eigenvalues --    0.11515   0.15230   0.15463   0.16604   0.20129
 Alpha virt. eigenvalues --    0.20174   0.25553   0.32588   0.33846   0.34324

 Mulliken charges:
               1
     1  C   -0.101721
     2  C    0.000677
     3  N   -0.211252
     4  H    0.104840
     5  H    0.102984
     6  H    0.104472
 Sum of Mulliken charges =   0.00000

 Dipole moment (field-independent basis, Debye):
    X=              4.1057    Y=             -0.0267    Z=              0.0428  Tot=              4.1060
 Quadrupole moment (field-independent basis, Debye-Ang):
   XX=            -21.2995   YY=            -17.6704   ZZ=            -17.7649
   XY=              0.1646   XZ=             -0.0857   YZ=              0.0151

 Normal termination of Gaussian 09 at Wed Aug 26 13:12:00 2020.
