 Gaussian 09, Revision D.01,
 Gaussian 09:  ES64L-G09RevD.01 24-Apr-2013

 --------------------
 #p B2PLYPD3/Def2QZVP
 --------------------

 ------------
 cyanomethane
 ------------
 Symbolic Z-matrix:
 Charge =  0 Multiplicity = 1

                         Standard orientation:
 ---------------------------------------------------------------------
 Center     Atomic      Atomic             Coordinates (Angstroms)
 Number     Number       Type             X           Y           Z
 ---------------------------------------------------------------------
      1          6           0        1.177557   -0.007670   -0.000380
      2          6           0       -0.278881   -0.017224    0.000037
      3          7           0       -1.431149    0.009752   -0.003511
      4          1           0        1.558876    0.973422   -0.359169
      5          1           0        1.573506   -0.770999   -0.610542
      6          1           0        1.493610   -0.121320    0.996353
 ---------------------------------------------------------------------

 SCF Done:  E(RB2PLYPD3) =  -132.534041791     A.U. after   12 cycles
 E2(B2PLYPD3) =    -0.1800894120D+00 E(B2PLYPD3) =    -0.13271413120266D+03

 The electronic state is 1-A.
 Alpha  occ. eigenvalues --  -14.84106 -10.66587 -10.66155  -1.04186  -0.89663
 Alpha  occ. eigenvalues --   -0.59876  -0.55115  -0.53544  -0.44759  -0.39230
 Alpha  occ. eigenvalues --   -0.39023
 Alpha virt. eigenvalues --    0.03807   0.07875   0.08484   0.10200   0.11308
 Alpha virt. eigenvalues --    0.11579   0.15456   0.16060   0.16637   0.20056
 Alpha virt. eigenvalues --    0.20129   0.25363   0.32830   0.34375   0.35382

 Mulliken charges:
               1
     1  C   -0.079203
     2  C   -0.002363
     3  N   -0.205863
     4  H    0.092547
     5  H    0.097469
     6  H    0.097413
 Sum of Mulliken charges =   0.00000

 Dipole moment (field-independent basis, Debye):
    X=              4.1289    Y=             -0.0139    Z=              0.0203  Tot=              4.1289
 Quadrupole moment (field-independent basis, Debye-Ang):
   XX=            -20.9630   YY=            -17.7152   ZZ=            -17.7241
   XY=              0.0566   XZ=             -0.0469   YZ=              0.0398

 Normal termination of Gaussian 09 at Wed Aug 26 22:27:30 2020.
