 Gaussian 09, Revision D.01,
 Gaussian 09:  ES64L-G09RevD.01 24-Apr-2013

 --------------------
 #p B2PLYPD3/Def2QZVP
 --------------------

 ------------
 cyanomethane
 ------------
 Symbolic Z-matrix:
 Charge =  0 Multiplicity = 1

                         Standard orientation:
 ---------------------------------------------------------------------
 Center     Atomic      Atomic             Coordinates (Angstroms)
 Number     Number       Type             X           Y           Z
 ---------------------------------------------------------------------
      1          6           0        1.193921   -0.000149    0.001247
      2          6           0       -0.275488   -0.017866   -0.014486
      3          7           0       -1.442577    0.016307    0.007834
      4          1           0        1.455802   -0.801054   -0.663608
      5          1           0        1.517579   -0.199146    1.020881
      6          1           0        1.614057    0.994142   -0.332676
 ---------------------------------------------------------------------

 SCF Done:  E(RB2PLYPD3) =  -132.530886605     A.U. after   12 cycles
 E2(B2PLYPD3) =    -0.1817937577D+00 E(B2PLYPD3) =    -0.13271268036257D+03

 The electronic state is 1-A.
 Alpha  occ. eigenvalues --  -14.84475 -10.67583 -10.66601  -1.03502  -0.89068
 Alpha  occ. eigenvalues --   -0.58855  -0.54751  -0.53375  -0.44695  -0.38711
 Alpha  occ. eigenvalues --   -0.38687
 Alpha virt. eigenvalues --    0.03625   0.07319   0.08264   0.10142   0.11144
 Alpha virt. eigenvalues --    0.11336   0.15129   0.15469   0.16544   0.20126
 Alpha virt. eigenvalues --    0.20197   0.25099   0.32272   0.34246   0.34545

 Mulliken charges:
               1
     1  C   -0.098170
     2  C   -0.000611
     3  N   -0.213020
     4  H    0.106659
     5  H    0.103771
     6  H    0.101371
 Sum of Mulliken charges =   0.00000

 Dipole moment (field-independent basis, Debye):
    X=              4.1365    Y=             -0.0341    Z=              0.0001  Tot=              4.1366
 Quadrupole moment (field-independent basis, Debye-Ang):
   XX=            -21.2478   YY=            -17.7176   ZZ=            -17.7871
   XY=              0.1843   XZ=              0.0757   YZ=              0.0357

 Normal termination of Gaussian 09 at Wed Aug 26 13:27:01 2020.
