 Gaussian 09, Revision D.01,
 Gaussian 09:  ES64L-G09RevD.01 24-Apr-2013

 --------------------
 #p B2PLYPD3/Def2QZVP
 --------------------

 ------------
 cyanomethane
 ------------
 Symbolic Z-matrix:
 Charge =  0 Multiplicity = 1

                         Standard orientation:
 ---------------------------------------------------------------------
 Center     Atomic      Atomic             Coordinates (Angstroms)
 Number     Number       Type             X           Y           Z
 ---------------------------------------------------------------------
      1          6           0       -1.184529   -0.000773   -0.007815
      2          6           0        0.283384    0.019332    0.003317
      3          7           0        1.436525   -0.007974   -0.000595
      4          1           0       -1.549205   -0.194628    0.992648
      5          1           0       -1.524549   -0.804330   -0.629285
      6          1           0       -1.575056    0.943420   -0.332205
 ---------------------------------------------------------------------

 SCF Done:  E(RB2PLYPD3) =  -132.535524753     A.U. after   11 cycles
 E2(B2PLYPD3) =    -0.1801902693D+00 E(B2PLYPD3) =    -0.13271571502263D+03

 The electronic state is 1-A.
 Alpha  occ. eigenvalues --  -14.84163 -10.66800 -10.66252  -1.04130  -0.89357
 Alpha  occ. eigenvalues --   -0.59674  -0.54683  -0.53697  -0.44762  -0.39239
 Alpha  occ. eigenvalues --   -0.39087
 Alpha virt. eigenvalues --    0.03817   0.08105   0.08216   0.10213   0.11271
 Alpha virt. eigenvalues --    0.11500   0.15352   0.16196   0.16531   0.20040
 Alpha virt. eigenvalues --    0.20120   0.25160   0.32727   0.34581   0.35201

 Mulliken charges:
               1
     1  C   -0.079502
     2  C   -0.002552
     3  N   -0.205796
     4  H    0.093059
     5  H    0.097679
     6  H    0.097112
 Sum of Mulliken charges =   0.00000

 Dipole moment (field-independent basis, Debye):
    X=             -4.1370    Y=              0.0005    Z=              0.0144  Tot=              4.1371
 Quadrupole moment (field-independent basis, Debye-Ang):
   XX=            -20.9563   YY=            -17.6589   ZZ=            -17.8228
   XY=              0.0335   XZ=             -0.0380   YZ=              0.0062

 Normal termination of Gaussian 09 at Thu Aug 27 00:06:40 2020.
