 Gaussian 09, Revision D.01,
 Gaussian 09:  ES64L-G09RevD.01 24-Apr-2013

 --------------------
 #p B2PLYPD3/Def2QZVP
 --------------------

 ------------
 cyanomethane
 ------------
 Symbolic Z-matrix:
 Charge =  0 Multiplicity = 1

                         Standard orientation:
 ---------------------------------------------------------------------
 Center     Atomic      Atomic             Coordinates (Angstroms)
 Number     Number       Type             X           Y           Z
 ---------------------------------------------------------------------
      1          6           0       -1.194777    0.029800    0.025593
      2          6           0        0.271527   -0.058564   -0.017767
      3          7           0        1.440136    0.014801    0.002329
      4          1           0       -1.442594    0.064742    0.961068
      5          1           0       -1.696069   -0.883687   -0.472026
      6          1           0       -1.402792    0.887922   -0.552307
 ---------------------------------------------------------------------

 SCF Done:  E(RB2PLYPD3) =  -132.517325048     A.U. after   12 cycles
 E2(B2PLYPD3) =    -0.1817176549D+00 E(B2PLYPD3) =    -0.13269904270331D+03

 The electronic state is 1-A.
 Alpha  occ. eigenvalues --  -14.84558 -10.66662 -10.66418  -1.03436  -0.90192
 Alpha  occ. eigenvalues --   -0.59531  -0.56958  -0.52945  -0.44696  -0.38882
 Alpha  occ. eigenvalues --   -0.38507
 Alpha virt. eigenvalues --    0.03782   0.07225   0.08766   0.10197   0.10960
 Alpha virt. eigenvalues --    0.11369   0.15075   0.15822   0.16179   0.20131
 Alpha virt. eigenvalues --    0.20163   0.25294   0.31625   0.34444   0.35659

 Mulliken charges:
               1
     1  C   -0.092388
     2  C   -0.000194
     3  N   -0.216203
     4  H    0.111897
     5  H    0.088856
     6  H    0.108033
 Sum of Mulliken charges =   0.00000

 Dipole moment (field-independent basis, Debye):
    X=             -4.1340    Y=              0.0062    Z=              0.0050  Tot=              4.1341
 Quadrupole moment (field-independent basis, Debye-Ang):
   XX=            -21.1393   YY=            -17.7621   ZZ=            -17.6952
   XY=              0.1052   XZ=              0.0414   YZ=             -0.0883

 Normal termination of Gaussian 09 at Wed Aug 26 23:41:24 2020.
