 Gaussian 09, Revision D.01,
 Gaussian 09:  ES64L-G09RevD.01 24-Apr-2013

 --------------------
 #p B2PLYPD3/Def2QZVP
 --------------------

 ------------
 cyanomethane
 ------------
 Symbolic Z-matrix:
 Charge =  0 Multiplicity = 1

                         Standard orientation:
 ---------------------------------------------------------------------
 Center     Atomic      Atomic             Coordinates (Angstroms)
 Number     Number       Type             X           Y           Z
 ---------------------------------------------------------------------
      1          6           0       -1.170287    0.015982   -0.040490
      2          6           0        0.261127   -0.033708    0.058653
      3          7           0        1.449444    0.016827   -0.028478
      4          1           0       -1.522928   -0.269084    0.945559
      5          1           0       -1.579781   -0.719155   -0.653843
      6          1           0       -1.588439    0.976804   -0.201351
 ---------------------------------------------------------------------

 SCF Done:  E(RB2PLYPD3) =  -132.522935331     A.U. after   12 cycles
 E2(B2PLYPD3) =    -0.1839281471D+00 E(B2PLYPD3) =    -0.13270686347782D+03

 The electronic state is 1-A.
 Alpha  occ. eigenvalues --  -14.85351 -10.67401 -10.66174  -1.02801  -0.90290
 Alpha  occ. eigenvalues --   -0.61397  -0.55593  -0.53072  -0.45082  -0.38430
 Alpha  occ. eigenvalues --   -0.37867
 Alpha virt. eigenvalues --    0.03683   0.06911   0.07292   0.09876   0.11003
 Alpha virt. eigenvalues --    0.11479   0.15138   0.15665   0.17968   0.20261
 Alpha virt. eigenvalues --    0.20481   0.26147   0.32697   0.33899   0.35895

 Mulliken charges:
               1
     1  C   -0.062638
     2  C    0.011907
     3  N   -0.222379
     4  H    0.081729
     5  H    0.094598
     6  H    0.096784
 Sum of Mulliken charges =   0.00000

 Dipole moment (field-independent basis, Debye):
    X=             -4.1897    Y=             -0.0432    Z=              0.0892  Tot=              4.1908
 Quadrupole moment (field-independent basis, Debye-Ang):
   XX=            -20.7316   YY=            -17.7186   ZZ=            -18.0793
   XY=             -0.0356   XZ=              0.0354   YZ=              0.0596

 Normal termination of Gaussian 09 at Wed Aug 26 20:27:37 2020.
