 Gaussian 09, Revision D.01,
 Gaussian 09:  ES64L-G09RevD.01 24-Apr-2013

 --------------------
 #p B2PLYPD3/Def2QZVP
 --------------------

 ------------
 cyanomethane
 ------------
 Symbolic Z-matrix:
 Charge =  0 Multiplicity = 1

                         Standard orientation:
 ---------------------------------------------------------------------
 Center     Atomic      Atomic             Coordinates (Angstroms)
 Number     Number       Type             X           Y           Z
 ---------------------------------------------------------------------
      1          6           0        1.182934    0.003571    0.003005
      2          6           0       -0.277795   -0.015320    0.008075
      3          7           0       -1.430723    0.008966   -0.003087
      4          1           0        1.538027   -0.441039    0.903635
      5          1           0        1.544133    1.026092   -0.092414
      6          1           0        1.502073   -0.577320   -0.856085
 ---------------------------------------------------------------------

 SCF Done:  E(RB2PLYPD3) =  -132.535425592     A.U. after   11 cycles
 E2(B2PLYPD3) =    -0.1802023813D+00 E(B2PLYPD3) =    -0.13271562797355D+03

 The electronic state is 1-A.
 Alpha  occ. eigenvalues --  -14.84057 -10.66882 -10.66115  -1.04103  -0.89461
 Alpha  occ. eigenvalues --   -0.59290  -0.54652  -0.54108  -0.44681  -0.39120
 Alpha  occ. eigenvalues --   -0.39024
 Alpha virt. eigenvalues --    0.03801   0.08024   0.08345   0.10193   0.11352
 Alpha virt. eigenvalues --    0.11481   0.15361   0.15910   0.16406   0.20082
 Alpha virt. eigenvalues --    0.20116   0.25272   0.32797   0.34503   0.34945

 Mulliken charges:
               1
     1  C   -0.088436
     2  C   -0.003716
     3  N   -0.206536
     4  H    0.100202
     5  H    0.099488
     6  H    0.098998
 Sum of Mulliken charges =   0.00000

 Dipole moment (field-independent basis, Debye):
    X=              4.1212    Y=             -0.0178    Z=              0.0006  Tot=              4.1212
 Quadrupole moment (field-independent basis, Debye-Ang):
   XX=            -21.1210   YY=            -17.6867   ZZ=            -17.6968
   XY=              0.0604   XZ=              0.0000   YZ=             -0.0139

 Normal termination of Gaussian 09 at Wed Aug 26 23:58:13 2020.
