 Gaussian 09, Revision D.01,
 Gaussian 09:  ES64L-G09RevD.01 24-Apr-2013

 --------------------
 #p B2PLYPD3/Def2QZVP
 --------------------

 ------------
 cyanomethane
 ------------
 Symbolic Z-matrix:
 Charge =  0 Multiplicity = 1

                         Standard orientation:
 ---------------------------------------------------------------------
 Center     Atomic      Atomic             Coordinates (Angstroms)
 Number     Number       Type             X           Y           Z
 ---------------------------------------------------------------------
      1          6           0        1.189845   -0.018955   -0.031894
      2          6           0       -0.287866    0.002589    0.056198
      3          7           0       -1.420888   -0.003321   -0.027326
      4          1           0        1.459629    1.018133   -0.026717
      5          1           0        1.549200   -0.482290   -0.765583
      6          1           0        1.525515   -0.414401    0.837757
 ---------------------------------------------------------------------

 SCF Done:  E(RB2PLYPD3) =  -132.512259637     A.U. after   12 cycles
 E2(B2PLYPD3) =    -0.1781976023D+00 E(B2PLYPD3) =    -0.13269045723934D+03

 The electronic state is 1-A.
 Alpha  occ. eigenvalues --  -14.83605 -10.65647 -10.64717  -1.04808  -0.90985
 Alpha  occ. eigenvalues --   -0.60873  -0.56352  -0.54447  -0.44637  -0.39883
 Alpha  occ. eigenvalues --   -0.39520
 Alpha virt. eigenvalues --    0.04030   0.09013   0.09381   0.10152   0.11353
 Alpha virt. eigenvalues --    0.11588   0.15364   0.15713   0.17305   0.19990
 Alpha virt. eigenvalues --    0.20094   0.25224   0.33205   0.34698   0.36294

 Mulliken charges:
               1
     1  C   -0.074415
     2  C   -0.002912
     3  N   -0.198642
     4  H    0.089568
     5  H    0.099201
     6  H    0.087201
 Sum of Mulliken charges =   0.00000

 Dipole moment (field-independent basis, Debye):
    X=              4.1007    Y=              0.0070    Z=              0.0699  Tot=              4.1013
 Quadrupole moment (field-independent basis, Debye-Ang):
   XX=            -20.8404   YY=            -17.5394   ZZ=            -17.6168
   XY=             -0.0837   XZ=             -0.1069   YZ=              0.0627

 Normal termination of Gaussian 09 at Wed Aug 26 23:23:36 2020.
