 Gaussian 09, Revision D.01,
 Gaussian 09:  ES64L-G09RevD.01 24-Apr-2013

 --------------------
 #p B2PLYPD3/Def2QZVP
 --------------------

 ------------
 cyanomethane
 ------------
 Symbolic Z-matrix:
 Charge =  0 Multiplicity = 1

                         Standard orientation:
 ---------------------------------------------------------------------
 Center     Atomic      Atomic             Coordinates (Angstroms)
 Number     Number       Type             X           Y           Z
 ---------------------------------------------------------------------
      1          6           0        1.191078   -0.007265   -0.004444
      2          6           0       -0.285116    0.026635    0.002688
      3          7           0       -1.435048   -0.007425   -0.005628
      4          1           0        1.531608   -0.700890   -0.734105
      5          1           0        1.450626   -0.341516    0.971723
      6          1           0        1.627328    0.978162   -0.187683
 ---------------------------------------------------------------------

 SCF Done:  E(RB2PLYPD3) =  -132.534416898     A.U. after   12 cycles
 E2(B2PLYPD3) =    -0.1799304356D+00 E(B2PLYPD3) =    -0.13271434733315D+03

 The electronic state is 1-A.
 Alpha  occ. eigenvalues --  -14.84022 -10.66839 -10.66137  -1.04202  -0.89338
 Alpha  occ. eigenvalues --   -0.59234  -0.54658  -0.54036  -0.44674  -0.39282
 Alpha  occ. eigenvalues --   -0.39181
 Alpha virt. eigenvalues --    0.03825   0.08083   0.08584   0.10252   0.11338
 Alpha virt. eigenvalues --    0.11419   0.15234   0.15815   0.16701   0.20058
 Alpha virt. eigenvalues --    0.20095   0.25011   0.32574   0.34756   0.35130

 Mulliken charges:
               1
     1  C   -0.086872
     2  C   -0.004223
     3  N   -0.204839
     4  H    0.099882
     5  H    0.100070
     6  H    0.095983
 Sum of Mulliken charges =   0.00000

 Dipole moment (field-independent basis, Debye):
    X=              4.1308    Y=             -0.0045    Z=              0.0213  Tot=              4.1308
 Quadrupole moment (field-independent basis, Debye-Ang):
   XX=            -21.0407   YY=            -17.6978   ZZ=            -17.7206
   XY=              0.0266   XZ=             -0.0843   YZ=              0.0114

 Normal termination of Gaussian 09 at Wed Aug 26 12:29:04 2020.
