 Gaussian 09, Revision D.01,
 Gaussian 09:  ES64L-G09RevD.01 24-Apr-2013

 --------------------
 #p B2PLYPD3/Def2QZVP
 --------------------

 ------------
 cyanomethane
 ------------
 Symbolic Z-matrix:
 Charge =  0 Multiplicity = 1

                         Standard orientation:
 ---------------------------------------------------------------------
 Center     Atomic      Atomic             Coordinates (Angstroms)
 Number     Number       Type             X           Y           Z
 ---------------------------------------------------------------------
      1          6           0       -1.168932    0.003795   -0.006353
      2          6           0        0.277928    0.016327   -0.005807
      3          7           0        1.433114   -0.010828    0.003633
      4          1           0       -1.537629    1.023091    0.018386
      5          1           0       -1.572448   -0.535309    0.885599
      6          1           0       -1.575699   -0.532716   -0.856455
 ---------------------------------------------------------------------

 SCF Done:  E(RB2PLYPD3) =  -132.534475563     A.U. after   11 cycles
 E2(B2PLYPD3) =    -0.1806739858D+00 E(B2PLYPD3) =    -0.13271514954854D+03

 The electronic state is 1-A.
 Alpha  occ. eigenvalues --  -14.84266 -10.67178 -10.66301  -1.04134  -0.89238
 Alpha  occ. eigenvalues --   -0.60161  -0.54433  -0.52881  -0.44862  -0.39105
 Alpha  occ. eigenvalues --   -0.38890
 Alpha virt. eigenvalues --    0.03715   0.07472   0.07943   0.10142   0.11368
 Alpha virt. eigenvalues --    0.11696   0.15483   0.16366   0.16593   0.20033
 Alpha virt. eigenvalues --    0.20156   0.25551   0.32793   0.34142   0.34965

 Mulliken charges:
               1
     1  C   -0.079654
     2  C    0.000313
     3  N   -0.206110
     4  H    0.098137
     5  H    0.091579
     6  H    0.095734
 Sum of Mulliken charges =   0.00000

 Dipole moment (field-independent basis, Debye):
    X=             -4.1278    Y=              0.0018    Z=             -0.0027  Tot=              4.1278
 Quadrupole moment (field-independent basis, Debye-Ang):
   XX=            -20.9205   YY=            -17.6832   ZZ=            -17.8852
   XY=              0.1289   XZ=             -0.0285   YZ=              0.0335

 Normal termination of Gaussian 09 at Thu Aug 27 00:06:39 2020.
