 Gaussian 09, Revision D.01,
 Gaussian 09:  ES64L-G09RevD.01 24-Apr-2013

 --------------------
 #p B2PLYPD3/Def2QZVP
 --------------------

 ------------
 cyanomethane
 ------------
 Symbolic Z-matrix:
 Charge =  0 Multiplicity = 1

                         Standard orientation:
 ---------------------------------------------------------------------
 Center     Atomic      Atomic             Coordinates (Angstroms)
 Number     Number       Type             X           Y           Z
 ---------------------------------------------------------------------
      1          6           0        1.207470    0.009869    0.011476
      2          6           0       -0.291823   -0.070115    0.008637
      3          7           0       -1.442328    0.044062   -0.004699
      4          1           0        1.626701    0.988731   -0.446895
      5          1           0        1.441359   -0.837820   -0.650600
      6          1           0        1.534354   -0.097873    1.009711
 ---------------------------------------------------------------------

 SCF Done:  E(RB2PLYPD3) =  -132.525312613     A.U. after   13 cycles
 E2(B2PLYPD3) =    -0.1811725974D+00 E(B2PLYPD3) =    -0.13270648520999D+03

 The electronic state is 1-A.
 Alpha  occ. eigenvalues --  -14.84240 -10.68076 -10.66369  -1.03939  -0.88327
 Alpha  occ. eigenvalues --   -0.58362  -0.54800  -0.52296  -0.44646  -0.39225
 Alpha  occ. eigenvalues --   -0.38896
 Alpha virt. eigenvalues --    0.03289   0.07313   0.08816   0.10059   0.11031
 Alpha virt. eigenvalues --    0.11337   0.14959   0.15219   0.16973   0.20043
 Alpha virt. eigenvalues --    0.20122   0.24902   0.32161   0.33394   0.34834

 Mulliken charges:
               1
     1  C   -0.106019
     2  C   -0.001462
     3  N   -0.205770
     4  H    0.099869
     5  H    0.104786
     6  H    0.108596
 Sum of Mulliken charges =   0.00000

 Dipole moment (field-independent basis, Debye):
    X=              4.1001    Y=             -0.0703    Z=              0.0069  Tot=              4.1007
 Quadrupole moment (field-independent basis, Debye-Ang):
   XX=            -21.2778   YY=            -17.7840   ZZ=            -17.7044
   XY=              0.3716   XZ=             -0.0037   YZ=              0.0350

 Normal termination of Gaussian 09 at Wed Aug 26 21:50:55 2020.
