 Gaussian 09, Revision D.01,
 Gaussian 09:  ES64L-G09RevD.01 24-Apr-2013

 --------------------
 #p B2PLYPD3/Def2QZVP
 --------------------

 ------------
 cyanomethane
 ------------
 Symbolic Z-matrix:
 Charge =  0 Multiplicity = 1

                         Standard orientation:
 ---------------------------------------------------------------------
 Center     Atomic      Atomic             Coordinates (Angstroms)
 Number     Number       Type             X           Y           Z
 ---------------------------------------------------------------------
      1          6           0        1.155258   -0.007532   -0.014669
      2          6           0       -0.269472    0.023951    0.025388
      3          7           0       -1.431960   -0.011240   -0.005886
      4          1           0        1.644349   -0.330430    0.931399
      5          1           0        1.559705    0.989615   -0.206845
      6          1           0        1.504949   -0.679023   -0.747668
 ---------------------------------------------------------------------

 SCF Done:  E(RB2PLYPD3) =  -132.532023346     A.U. after   11 cycles
 E2(B2PLYPD3) =    -0.1813332634D+00 E(B2PLYPD3) =    -0.13271335660895D+03

 The electronic state is 1-A.
 Alpha  occ. eigenvalues --  -14.84524 -10.66690 -10.66491  -1.03924  -0.89806
 Alpha  occ. eigenvalues --   -0.61100  -0.54663  -0.52883  -0.44979  -0.38863
 Alpha  occ. eigenvalues --   -0.38660
 Alpha virt. eigenvalues --    0.03771   0.07179   0.07676   0.10093   0.11455
 Alpha virt. eigenvalues --    0.11677   0.15632   0.16441   0.16776   0.20091
 Alpha virt. eigenvalues --    0.20190   0.26012   0.32819   0.34350   0.35201

 Mulliken charges:
               1
     1  C   -0.067964
     2  C    0.004231
     3  N   -0.210224
     4  H    0.085851
     5  H    0.091440
     6  H    0.096666
 Sum of Mulliken charges =   0.00000

 Dipole moment (field-independent basis, Debye):
    X=              4.1432    Y=              0.0074    Z=              0.0026  Tot=              4.1432
 Quadrupole moment (field-independent basis, Debye-Ang):
   XX=            -20.7561   YY=            -17.7493   ZZ=            -17.9049
   XY=             -0.0693   XZ=              0.0593   YZ=              0.0528

 Normal termination of Gaussian 09 at Wed Aug 26 13:53:15 2020.
