 Gaussian 09, Revision D.01,
 Gaussian 09:  ES64L-G09RevD.01 24-Apr-2013

 --------------------
 #p B2PLYPD3/Def2QZVP
 --------------------

 ------------
 cyanomethane
 ------------
 Symbolic Z-matrix:
 Charge =  0 Multiplicity = 1

                         Standard orientation:
 ---------------------------------------------------------------------
 Center     Atomic      Atomic             Coordinates (Angstroms)
 Number     Number       Type             X           Y           Z
 ---------------------------------------------------------------------
      1          6           0        1.183086   -0.018309   -0.017261
      2          6           0       -0.269028    0.018314    0.017131
      3          7           0       -1.442000   -0.004592   -0.005916
      4          1           0        1.552590   -0.008252    1.039664
      5          1           0        1.563936    0.928230   -0.485114
      6          1           0        1.493124   -0.887870   -0.512359
 ---------------------------------------------------------------------

 SCF Done:  E(RB2PLYPD3) =  -132.530246981     A.U. after   11 cycles
 E2(B2PLYPD3) =    -0.1822506863D+00 E(B2PLYPD3) =    -0.13271249766709D+03

 The electronic state is 1-A.
 Alpha  occ. eigenvalues --  -14.84655 -10.67404 -10.66737  -1.03346  -0.89321
 Alpha  occ. eigenvalues --   -0.59484  -0.55265  -0.52865  -0.44789  -0.38689
 Alpha  occ. eigenvalues --   -0.38361
 Alpha virt. eigenvalues --    0.03679   0.07264   0.07734   0.10109   0.11123
 Alpha virt. eigenvalues --    0.11436   0.15280   0.15748   0.16400   0.20127
 Alpha virt. eigenvalues --    0.20231   0.25440   0.32321   0.33557   0.35194

 Mulliken charges:
               1
     1  C   -0.090989
     2  C    0.001664
     3  N   -0.215488
     4  H    0.096348
     5  H    0.099541
     6  H    0.108924
 Sum of Mulliken charges =   0.00000

 Dipole moment (field-independent basis, Debye):
    X=              4.1440    Y=              0.0073    Z=              0.0215  Tot=              4.1440
 Quadrupole moment (field-independent basis, Debye-Ang):
   XX=            -21.1752   YY=            -17.6810   ZZ=            -17.8779
   XY=              0.0418   XZ=              0.0317   YZ=              0.0669

 Normal termination of Gaussian 09 at Wed Aug 26 13:31:47 2020.
