 Gaussian 09, Revision D.01,
 Gaussian 09:  ES64L-G09RevD.01 24-Apr-2013

 --------------------
 #p B2PLYPD3/Def2QZVP
 --------------------

 ------------
 cyanomethane
 ------------
 Symbolic Z-matrix:
 Charge =  0 Multiplicity = 1

                         Standard orientation:
 ---------------------------------------------------------------------
 Center     Atomic      Atomic             Coordinates (Angstroms)
 Number     Number       Type             X           Y           Z
 ---------------------------------------------------------------------
      1          6           0        1.166394    0.004999    0.008478
      2          6           0       -0.272318   -0.011263   -0.006731
      3          7           0       -1.432962    0.006691    0.004302
      4          1           0        1.525270   -0.680207   -0.758959
      5          1           0        1.572428   -0.315340    0.941645
      6          1           0        1.568579    0.986294   -0.223282
 ---------------------------------------------------------------------

 SCF Done:  E(RB2PLYPD3) =  -132.534491903     A.U. after   11 cycles
 E2(B2PLYPD3) =    -0.1809348725D+00 E(B2PLYPD3) =    -0.13271542677578D+03

 The electronic state is 1-A.
 Alpha  occ. eigenvalues --  -14.84387 -10.66668 -10.66402  -1.03938  -0.89729
 Alpha  occ. eigenvalues --   -0.60546  -0.54275  -0.53799  -0.44878  -0.38937
 Alpha  occ. eigenvalues --   -0.38795
 Alpha virt. eigenvalues --    0.03807   0.07657   0.07842   0.10121   0.11432
 Alpha virt. eigenvalues --    0.11533   0.15575   0.16076   0.16831   0.20130
 Alpha virt. eigenvalues --    0.20148   0.25700   0.32929   0.34446   0.35074

 Mulliken charges:
               1
     1  C   -0.073574
     2  C    0.001405
     3  N   -0.209488
     4  H    0.092392
     5  H    0.095088
     6  H    0.094176
 Sum of Mulliken charges =   0.00000

 Dipole moment (field-independent basis, Debye):
    X=              4.1417    Y=             -0.0167    Z=             -0.0117  Tot=              4.1418
 Quadrupole moment (field-independent basis, Debye-Ang):
   XX=            -20.8756   YY=            -17.7737   ZZ=            -17.7826
   XY=              0.0413   XZ=              0.0373   YZ=             -0.0189

 Normal termination of Gaussian 09 at Thu Aug 27 00:09:10 2020.
