 Gaussian 09, Revision D.01,
 Gaussian 09:  ES64L-G09RevD.01 24-Apr-2013

 --------------------
 #p B2PLYPD3/Def2QZVP
 --------------------

 ------------
 cyanomethane
 ------------
 Symbolic Z-matrix:
 Charge =  0 Multiplicity = 1

                         Standard orientation:
 ---------------------------------------------------------------------
 Center     Atomic      Atomic             Coordinates (Angstroms)
 Number     Number       Type             X           Y           Z
 ---------------------------------------------------------------------
      1          6           0        1.183570   -0.014092    0.008972
      2          6           0       -0.283651   -0.021161    0.008102
      3          7           0       -1.439010    0.019778   -0.008470
      4          1           0        1.664392    0.929560   -0.493210
      5          1           0        1.499011   -0.857297   -0.537299
      6          1           0        1.510155    0.000814    0.987359
 ---------------------------------------------------------------------

 SCF Done:  E(RB2PLYPD3) =  -132.527307257     A.U. after   12 cycles
 E2(B2PLYPD3) =    -0.1806859445D+00 E(B2PLYPD3) =    -0.13270799320120D+03

 The electronic state is 1-A.
 Alpha  occ. eigenvalues --  -14.84300 -10.67069 -10.66378  -1.04067  -0.89325
 Alpha  occ. eigenvalues --   -0.59650  -0.55882  -0.52034  -0.44818  -0.39275
 Alpha  occ. eigenvalues --   -0.38880
 Alpha virt. eigenvalues --    0.03538   0.07256   0.08717   0.10198   0.11099
 Alpha virt. eigenvalues --    0.11631   0.15340   0.15970   0.16823   0.20017
 Alpha virt. eigenvalues --    0.20174   0.25170   0.32089   0.33901   0.35623

 Mulliken charges:
               1
     1  C   -0.083157
     2  C   -0.001321
     3  N   -0.206327
     4  H    0.087329
     5  H    0.101908
     6  H    0.101568
 Sum of Mulliken charges =   0.00000

 Dipole moment (field-independent basis, Debye):
    X=              4.1288    Y=             -0.0439    Z=              0.0318  Tot=              4.1292
 Quadrupole moment (field-independent basis, Debye-Ang):
   XX=            -20.9476   YY=            -17.7909   ZZ=            -17.7660
   XY=              0.2084   XZ=             -0.0608   YZ=              0.1090

 Normal termination of Gaussian 09 at Wed Aug 26 14:33:05 2020.
