 Gaussian 09, Revision D.01,
 Gaussian 09:  ES64L-G09RevD.01 24-Apr-2013

 --------------------
 #p B2PLYPD3/Def2QZVP
 --------------------

 ------------
 cyanomethane
 ------------
 Symbolic Z-matrix:
 Charge =  0 Multiplicity = 1

                         Standard orientation:
 ---------------------------------------------------------------------
 Center     Atomic      Atomic             Coordinates (Angstroms)
 Number     Number       Type             X           Y           Z
 ---------------------------------------------------------------------
      1          6           0        1.175610    0.003407    0.001035
      2          6           0       -0.279209    0.002756    0.014445
      3          7           0       -1.426827   -0.001736   -0.007656
      4          1           0        1.537306    1.026087   -0.092986
      5          1           0        1.535530   -0.594899   -0.860707
      6          1           0        1.536544   -0.456009    0.914403
 ---------------------------------------------------------------------

 SCF Done:  E(RB2PLYPD3) =  -132.535831991     A.U. after   11 cycles
 E2(B2PLYPD3) =    -0.1799200909D+00 E(B2PLYPD3) =    -0.13271575208218D+03

 The electronic state is 1-A.
 Alpha  occ. eigenvalues --  -14.83929 -10.67222 -10.65964  -1.04348  -0.89186
 Alpha  occ. eigenvalues --   -0.59334  -0.54377  -0.53586  -0.44702  -0.39217
 Alpha  occ. eigenvalues --   -0.39102
 Alpha virt. eigenvalues --    0.03743   0.07893   0.08186   0.10188   0.11478
 Alpha virt. eigenvalues --    0.11637   0.15404   0.16161   0.16337   0.20047
 Alpha virt. eigenvalues --    0.20092   0.25386   0.32817   0.34266   0.34785

 Mulliken charges:
               1
     1  C   -0.091122
     2  C   -0.003478
     3  N   -0.203152
     4  H    0.100479
     5  H    0.097666
     6  H    0.099606
 Sum of Mulliken charges =   0.00000

 Dipole moment (field-independent basis, Debye):
    X=              4.1066    Y=             -0.0027    Z=              0.0107  Tot=              4.1066
 Quadrupole moment (field-independent basis, Debye-Ang):
   XX=            -21.1136   YY=            -17.6679   ZZ=            -17.7277
   XY=             -0.0229   XZ=             -0.0452   YZ=             -0.0237

 Normal termination of Gaussian 09 at Wed Aug 26 09:42:27 2020.
