 Gaussian 09, Revision D.01,
 Gaussian 09:  ES64L-G09RevD.01 24-Apr-2013

 --------------------
 #p B2PLYPD3/Def2QZVP
 --------------------

 ------------
 cyanomethane
 ------------
 Symbolic Z-matrix:
 Charge =  0 Multiplicity = 1

                         Standard orientation:
 ---------------------------------------------------------------------
 Center     Atomic      Atomic             Coordinates (Angstroms)
 Number     Number       Type             X           Y           Z
 ---------------------------------------------------------------------
      1          6           0        1.171275    0.003406   -0.006019
      2          6           0       -0.282273    0.002907    0.018173
      3          7           0       -1.429469   -0.001241   -0.010140
      4          1           0        1.568903    1.020326   -0.159460
      5          1           0        1.564745   -0.666281   -0.787121
      6          1           0        1.538620   -0.383242    0.944638
 ---------------------------------------------------------------------

 SCF Done:  E(RB2PLYPD3) =  -132.535563139     A.U. after   11 cycles
 E2(B2PLYPD3) =    -0.1799960203D+00 E(B2PLYPD3) =    -0.13271555915973D+03

 The electronic state is 1-A.
 Alpha  occ. eigenvalues --  -14.84017 -10.67303 -10.66057  -1.04420  -0.89040
 Alpha  occ. eigenvalues --   -0.59770  -0.53863  -0.53389  -0.44796  -0.39256
 Alpha  occ. eigenvalues --   -0.39149
 Alpha virt. eigenvalues --    0.03718   0.07744   0.08035   0.10171   0.11530
 Alpha virt. eigenvalues --    0.11656   0.15456   0.16116   0.16794   0.20037
 Alpha virt. eigenvalues --    0.20081   0.25452   0.32812   0.34367   0.34685

 Mulliken charges:
               1
     1  C   -0.085053
     2  C   -0.001622
     3  N   -0.202126
     4  H    0.097739
     5  H    0.095984
     6  H    0.095078
 Sum of Mulliken charges =   0.00000

 Dipole moment (field-independent basis, Debye):
    X=              4.1127    Y=             -0.0128    Z=              0.0252  Tot=              4.1128
 Quadrupole moment (field-independent basis, Debye-Ang):
   XX=            -20.9728   YY=            -17.6775   ZZ=            -17.8196
   XY=             -0.0325   XZ=             -0.0547   YZ=             -0.0064

 Normal termination of Gaussian 09 at Thu Aug 27 00:13:24 2020.
