 Gaussian 09, Revision D.01,
 Gaussian 09:  ES64L-G09RevD.01 24-Apr-2013

 --------------------
 #p B2PLYPD3/Def2QZVP
 --------------------

 ------------
 cyanomethane
 ------------
 Symbolic Z-matrix:
 Charge =  0 Multiplicity = 1

                         Standard orientation:
 ---------------------------------------------------------------------
 Center     Atomic      Atomic             Coordinates (Angstroms)
 Number     Number       Type             X           Y           Z
 ---------------------------------------------------------------------
      1          6           0       -1.171408    0.010668   -0.013983
      2          6           0        0.283892   -0.004791    0.025346
      3          7           0        1.443275    0.000560   -0.012316
      4          1           0       -1.588657   -0.352365    0.973145
      5          1           0       -1.604749   -0.684311   -0.771365
      6          1           0       -1.584423    0.997492   -0.183741
 ---------------------------------------------------------------------

 SCF Done:  E(RB2PLYPD3) =  -132.532289247     A.U. after   12 cycles
 E2(B2PLYPD3) =    -0.1813517576D+00 E(B2PLYPD3) =    -0.13271364100486D+03

 The electronic state is 1-A.
 Alpha  occ. eigenvalues --  -14.84540 -10.67714 -10.66634  -1.04017  -0.88691
 Alpha  occ. eigenvalues --   -0.60372  -0.53643  -0.52367  -0.44992  -0.39089
 Alpha  occ. eigenvalues --   -0.38838
 Alpha virt. eigenvalues --    0.03618   0.07200   0.07496   0.10110   0.11399
 Alpha virt. eigenvalues --    0.11611   0.15440   0.16210   0.17111   0.20075
 Alpha virt. eigenvalues --    0.20133   0.25455   0.32439   0.33870   0.34887

 Mulliken charges:
               1
     1  C   -0.077610
     2  C    0.004095
     3  N   -0.206722
     4  H    0.088878
     5  H    0.093749
     6  H    0.097610
 Sum of Mulliken charges =   0.00000

 Dipole moment (field-independent basis, Debye):
    X=             -4.1379    Y=             -0.0030    Z=              0.0218  Tot=              4.1380
 Quadrupole moment (field-independent basis, Debye-Ang):
   XX=            -20.8027   YY=            -17.8212   ZZ=            -17.9399
   XY=              0.0212   XZ=              0.0619   YZ=              0.0042

 Normal termination of Gaussian 09 at Wed Aug 26 11:06:06 2020.
