 Gaussian 09, Revision D.01,
 Gaussian 09:  ES64L-G09RevD.01 24-Apr-2013

 --------------------
 #p B2PLYPD3/Def2QZVP
 --------------------

 ------------
 cyanomethane
 ------------
 Symbolic Z-matrix:
 Charge =  0 Multiplicity = 1

                         Standard orientation:
 ---------------------------------------------------------------------
 Center     Atomic      Atomic             Coordinates (Angstroms)
 Number     Number       Type             X           Y           Z
 ---------------------------------------------------------------------
      1          6           0        1.178619    0.011132   -0.002312
      2          6           0       -0.282627    0.003062   -0.009466
      3          7           0       -1.435057   -0.002044    0.006760
      4          1           0        1.573751   -0.305617    0.980064
      5          1           0        1.561644    0.969516   -0.236463
      6          1           0        1.534047   -0.734748   -0.720252
 ---------------------------------------------------------------------

 SCF Done:  E(RB2PLYPD3) =  -132.534966122     A.U. after   11 cycles
 E2(B2PLYPD3) =    -0.1802665398D+00 E(B2PLYPD3) =    -0.13271523266197D+03

 The electronic state is 1-A.
 Alpha  occ. eigenvalues --  -14.84162 -10.67047 -10.66238  -1.04199  -0.89212
 Alpha  occ. eigenvalues --   -0.59843  -0.54653  -0.53117  -0.44799  -0.39261
 Alpha  occ. eigenvalues --   -0.39023
 Alpha virt. eigenvalues --    0.03761   0.07778   0.08199   0.10189   0.11312
 Alpha virt. eigenvalues --    0.11615   0.15402   0.16180   0.16674   0.20035
 Alpha virt. eigenvalues --    0.20122   0.25276   0.32725   0.34206   0.35181

 Mulliken charges:
               1
     1  C   -0.080906
     2  C   -0.001474
     3  N   -0.204941
     4  H    0.092947
     5  H    0.099501
     6  H    0.094873
 Sum of Mulliken charges =   0.00000

 Dipole moment (field-independent basis, Debye):
    X=              4.1305    Y=             -0.0076    Z=             -0.0080  Tot=              4.1306
 Quadrupole moment (field-independent basis, Debye-Ang):
   XX=            -20.9462   YY=            -17.6838   ZZ=            -17.8340
   XY=             -0.0269   XZ=              0.0713   YZ=             -0.0117

 Normal termination of Gaussian 09 at Wed Aug 26 22:58:54 2020.
