 Gaussian 09, Revision D.01,
 Gaussian 09:  ES64L-G09RevD.01 24-Apr-2013

 --------------------
 #p B2PLYPD3/Def2QZVP
 --------------------

 ------------
 cyanomethane
 ------------
 Symbolic Z-matrix:
 Charge =  0 Multiplicity = 1

                         Standard orientation:
 ---------------------------------------------------------------------
 Center     Atomic      Atomic             Coordinates (Angstroms)
 Number     Number       Type             X           Y           Z
 ---------------------------------------------------------------------
      1          6           0        1.170767   -0.007745   -0.013528
      2          6           0       -0.271302    0.013075    0.009855
      3          7           0       -1.431763   -0.004558   -0.002022
      4          1           0        1.564228   -0.038707    1.021681
      5          1           0        1.548181    0.915731   -0.460885
      6          1           0        1.513139   -0.877092   -0.524605
 ---------------------------------------------------------------------

 SCF Done:  E(RB2PLYPD3) =  -132.534248869     A.U. after   11 cycles
 E2(B2PLYPD3) =    -0.1809885069D+00 E(B2PLYPD3) =    -0.13271523737571D+03

 The electronic state is 1-A.
 Alpha  occ. eigenvalues --  -14.84316 -10.66974 -10.66336  -1.03894  -0.89555
 Alpha  occ. eigenvalues --   -0.59923  -0.54911  -0.53281  -0.44801  -0.38940
 Alpha  occ. eigenvalues --   -0.38710
 Alpha virt. eigenvalues --    0.03768   0.07598   0.07900   0.10139   0.11335
 Alpha virt. eigenvalues --    0.11597   0.15461   0.16079   0.16478   0.20091
 Alpha virt. eigenvalues --    0.20171   0.25623   0.32766   0.34114   0.35110

 Mulliken charges:
               1
     1  C   -0.083139
     2  C   -0.000080
     3  N   -0.209725
     4  H    0.092801
     5  H    0.098110
     6  H    0.102033
 Sum of Mulliken charges =   0.00000

 Dipole moment (field-independent basis, Debye):
    X=              4.1309    Y=              0.0051    Z=              0.0152  Tot=              4.1309
 Quadrupole moment (field-independent basis, Debye-Ang):
   XX=            -21.0357   YY=            -17.6510   ZZ=            -17.8447
   XY=              0.0007   XZ=              0.0539   YZ=              0.0282

 Normal termination of Gaussian 09 at Thu Aug 27 00:03:31 2020.
