 Gaussian 09, Revision D.01,
 Gaussian 09:  ES64L-G09RevD.01 24-Apr-2013

 --------------------
 #p B2PLYPD3/Def2QZVP
 --------------------

 ------------
 cyanomethane
 ------------
 Symbolic Z-matrix:
 Charge =  0 Multiplicity = 1

                         Standard orientation:
 ---------------------------------------------------------------------
 Center     Atomic      Atomic             Coordinates (Angstroms)
 Number     Number       Type             X           Y           Z
 ---------------------------------------------------------------------
      1          6           0        1.191803   -0.000075   -0.002456
      2          6           0       -0.283497   -0.029659   -0.013604
      3          7           0       -1.438347    0.018865    0.009233
      4          1           0        1.573164    0.997092   -0.324016
      5          1           0        1.489762   -0.765892   -0.662934
      6          1           0        1.555666   -0.184850    1.018680
 ---------------------------------------------------------------------

 SCF Done:  E(RB2PLYPD3) =  -132.533056616     A.U. after   12 cycles
 E2(B2PLYPD3) =    -0.1806509804D+00 E(B2PLYPD3) =    -0.13271370759674D+03

 The electronic state is 1-A.
 Alpha  occ. eigenvalues --  -14.84203 -10.67343 -10.66301  -1.03981  -0.89007
 Alpha  occ. eigenvalues --   -0.58979  -0.54897  -0.53189  -0.44705  -0.39119
 Alpha  occ. eigenvalues --   -0.38996
 Alpha virt. eigenvalues --    0.03665   0.07604   0.08529   0.10178   0.11164
 Alpha virt. eigenvalues --    0.11479   0.15226   0.15768   0.16580   0.20035
 Alpha virt. eigenvalues --    0.20145   0.25050   0.32514   0.34224   0.34908

 Mulliken charges:
               1
     1  C   -0.092259
     2  C   -0.002933
     3  N   -0.206872
     4  H    0.098995
     5  H    0.104096
     6  H    0.098973
 Sum of Mulliken charges =   0.00000

 Dipole moment (field-independent basis, Debye):
    X=              4.1252    Y=             -0.0306    Z=             -0.0088  Tot=              4.1253
 Quadrupole moment (field-independent basis, Debye-Ang):
   XX=            -21.1287   YY=            -17.7102   ZZ=            -17.7562
   XY=              0.1537   XZ=              0.0949   YZ=              0.0484

 Normal termination of Gaussian 09 at Wed Aug 26 14:37:45 2020.
