 Gaussian 09, Revision D.01,
 Gaussian 09:  ES64L-G09RevD.01 24-Apr-2013

 --------------------
 #p B2PLYPD3/Def2QZVP
 --------------------

 ------------
 cyanomethane
 ------------
 Symbolic Z-matrix:
 Charge =  0 Multiplicity = 1

                         Standard orientation:
 ---------------------------------------------------------------------
 Center     Atomic      Atomic             Coordinates (Angstroms)
 Number     Number       Type             X           Y           Z
 ---------------------------------------------------------------------
      1          6           0       -1.193269    0.007878   -0.014340
      2          6           0        0.273850    0.000400    0.041958
      3          7           0        1.440196   -0.006432   -0.013973
      4          1           0       -1.441382    1.006698   -0.082413
      5          1           0       -1.635934   -0.452891    0.862212
      6          1           0       -1.487541   -0.558456   -0.847697
 ---------------------------------------------------------------------

 SCF Done:  E(RB2PLYPD3) =  -132.530047033     A.U. after   12 cycles
 E2(B2PLYPD3) =    -0.1812444347D+00 E(B2PLYPD3) =    -0.13271129146793D+03

 The electronic state is 1-A.
 Alpha  occ. eigenvalues --  -14.84468 -10.66571 -10.66273  -1.03535  -0.90022
 Alpha  occ. eigenvalues --   -0.59470  -0.56037  -0.53987  -0.44706  -0.38857
 Alpha  occ. eigenvalues --   -0.38740
 Alpha virt. eigenvalues --    0.03872   0.07812   0.08555   0.10225   0.11048
 Alpha virt. eigenvalues --    0.11298   0.15197   0.15878   0.16297   0.20136
 Alpha virt. eigenvalues --    0.20173   0.25204   0.32497   0.34916   0.35431

 Mulliken charges:
               1
     1  C   -0.081255
     2  C   -0.001743
     3  N   -0.214239
     4  H    0.104213
     5  H    0.092647
     6  H    0.100377
 Sum of Mulliken charges =   0.00000

 Dipole moment (field-independent basis, Debye):
    X=             -4.1527    Y=              0.0029    Z=              0.0086  Tot=              4.1527
 Quadrupole moment (field-independent basis, Debye-Ang):
   XX=            -21.0558   YY=            -17.6327   ZZ=            -17.8162
   XY=              0.1493   XZ=             -0.0222   YZ=              0.0273

 Normal termination of Gaussian 09 at Wed Aug 26 12:14:27 2020.
