 Gaussian 09, Revision D.01,
 Gaussian 09:  ES64L-G09RevD.01 24-Apr-2013

 --------------------
 #p B2PLYPD3/Def2QZVP
 --------------------

 ------------
 cyanomethane
 ------------
 Symbolic Z-matrix:
 Charge =  0 Multiplicity = 1

                         Standard orientation:
 ---------------------------------------------------------------------
 Center     Atomic      Atomic             Coordinates (Angstroms)
 Number     Number       Type             X           Y           Z
 ---------------------------------------------------------------------
      1          6           0       -1.173996   -0.004696    0.001323
      2          6           0        0.274131    0.047246   -0.001462
      3          7           0        1.455458   -0.037554   -0.002484
      4          1           0       -1.426947    1.059172   -0.125292
      5          1           0       -1.620255   -0.398760    0.890265
      6          1           0       -1.741811   -0.652834   -0.746754
 ---------------------------------------------------------------------

 SCF Done:  E(RB2PLYPD3) =  -132.519866576     A.U. after   12 cycles
 E2(B2PLYPD3) =    -0.1838743778D+00 E(B2PLYPD3) =    -0.13270374095410D+03

 The electronic state is 1-A.
 Alpha  occ. eigenvalues --  -14.85261 -10.67550 -10.67409  -1.03129  -0.89151
 Alpha  occ. eigenvalues --   -0.61542  -0.54054  -0.51500  -0.45125  -0.38386
 Alpha  occ. eigenvalues --   -0.38262
 Alpha virt. eigenvalues --    0.03425   0.06155   0.07480   0.09712   0.11171
 Alpha virt. eigenvalues --    0.11702   0.14965   0.16204   0.17548   0.20015
 Alpha virt. eigenvalues --    0.20640   0.25691   0.32235   0.33910   0.34422

 Mulliken charges:
               1
     1  C   -0.074462
     2  C    0.012294
     3  N   -0.217370
     4  H    0.096465
     5  H    0.092885
     6  H    0.090188
 Sum of Mulliken charges =   0.00000

 Dipole moment (field-independent basis, Debye):
    X=             -4.1764    Y=              0.0236    Z=              0.0423  Tot=              4.1766
 Quadrupole moment (field-independent basis, Debye-Ang):
   XX=            -20.6863   YY=            -17.7245   ZZ=            -18.2791
   XY=              0.4945   XZ=             -0.0302   YZ=             -0.0600

 Normal termination of Gaussian 09 at Wed Aug 26 23:51:30 2020.
