 Gaussian 09, Revision D.01,
 Gaussian 09:  ES64L-G09RevD.01 24-Apr-2013

 --------------------
 #p B2PLYPD3/Def2QZVP
 --------------------

 ------------
 cyanomethane
 ------------
 Symbolic Z-matrix:
 Charge =  0 Multiplicity = 1

                         Standard orientation:
 ---------------------------------------------------------------------
 Center     Atomic      Atomic             Coordinates (Angstroms)
 Number     Number       Type             X           Y           Z
 ---------------------------------------------------------------------
      1          6           0       -1.167974    0.010900   -0.016466
      2          6           0        0.301080   -0.086367    0.030045
      3          7           0        1.437080    0.043859   -0.019261
      4          1           0       -1.600661    1.023857    0.032505
      5          1           0       -1.563161   -0.439969    0.849228
      6          1           0       -1.694378   -0.438097   -0.828386
 ---------------------------------------------------------------------

 SCF Done:  E(RB2PLYPD3) =  -132.527811143     A.U. after   12 cycles
 E2(B2PLYPD3) =    -0.1799719120D+00 E(B2PLYPD3) =    -0.13270778305521D+03

 The electronic state is 1-A.
 Alpha  occ. eigenvalues --  -14.84333 -10.66620 -10.66412  -1.04787  -0.89053
 Alpha  occ. eigenvalues --   -0.61314  -0.53564  -0.52410  -0.45140  -0.39698
 Alpha  occ. eigenvalues --   -0.39449
 Alpha virt. eigenvalues --    0.03491   0.07449   0.08407   0.09986   0.11390
 Alpha virt. eigenvalues --    0.11742   0.15604   0.16181   0.18080   0.19848
 Alpha virt. eigenvalues --    0.20356   0.25751   0.33061   0.34358   0.35391

 Mulliken charges:
               1
     1  C   -0.057180
     2  C    0.010235
     3  N   -0.198249
     4  H    0.080986
     5  H    0.080261
     6  H    0.083947
 Sum of Mulliken charges =   0.00000

 Dipole moment (field-independent basis, Debye):
    X=             -4.1092    Y=             -0.0713    Z=              0.0627  Tot=              4.1103
 Quadrupole moment (field-independent basis, Debye-Ang):
   XX=            -20.3570   YY=            -17.9233   ZZ=            -17.8930
   XY=             -0.2427   XZ=              0.1138   YZ=              0.0244

 Normal termination of Gaussian 09 at Wed Aug 26 23:52:47 2020.
