 Gaussian 09, Revision D.01,
 Gaussian 09:  ES64L-G09RevD.01 24-Apr-2013

 --------------------
 #p B2PLYPD3/Def2QZVP
 --------------------

 ------------
 cyanomethane
 ------------
 Symbolic Z-matrix:
 Charge =  0 Multiplicity = 1

                         Standard orientation:
 ---------------------------------------------------------------------
 Center     Atomic      Atomic             Coordinates (Angstroms)
 Number     Number       Type             X           Y           Z
 ---------------------------------------------------------------------
      1          6           0        1.150994   -0.007235    0.012734
      2          6           0       -0.268484   -0.039070   -0.045851
      3          7           0       -1.426823    0.033709    0.026457
      4          1           0        1.399806   -0.767134   -0.623971
      5          1           0        1.589816   -0.174274    0.969214
      6          1           0        1.703077    0.983280   -0.331746
 ---------------------------------------------------------------------

 SCF Done:  E(RB2PLYPD3) =  -132.518785146     A.U. after   12 cycles
 E2(B2PLYPD3) =    -0.1817127728D+00 E(B2PLYPD3) =    -0.13270049791910D+03

 The electronic state is 1-A.
 Alpha  occ. eigenvalues --  -14.84551 -10.66670 -10.66469  -1.04031  -0.90137
 Alpha  occ. eigenvalues --   -0.61092  -0.55438  -0.51829  -0.45023  -0.38819
 Alpha  occ. eigenvalues --   -0.38562
 Alpha virt. eigenvalues --    0.03374   0.06368   0.08482   0.09850   0.11362
 Alpha virt. eigenvalues --    0.11883   0.15240   0.16035   0.17760   0.19961
 Alpha virt. eigenvalues --    0.20506   0.26246   0.32320   0.34263   0.35147

 Mulliken charges:
               1
     1  C   -0.078285
     2  C    0.007159
     3  N   -0.209533
     4  H    0.100115
     5  H    0.094108
     6  H    0.086437
 Sum of Mulliken charges =   0.00000

 Dipole moment (field-independent basis, Debye):
    X=              4.1114    Y=             -0.0923    Z=             -0.0195  Tot=              4.1125
 Quadrupole moment (field-independent basis, Debye-Ang):
   XX=            -20.7521   YY=            -17.7958   ZZ=            -17.8703
   XY=              0.3007   XZ=              0.2510   YZ=              0.0981

 Normal termination of Gaussian 09 at Wed Aug 26 21:43:00 2020.
