 Gaussian 09, Revision D.01,
 Gaussian 09:  ES64L-G09RevD.01 24-Apr-2013

 --------------------
 #p B2PLYPD3/Def2QZVP
 --------------------

 ------------
 cyanomethane
 ------------
 Symbolic Z-matrix:
 Charge =  0 Multiplicity = 1

                         Standard orientation:
 ---------------------------------------------------------------------
 Center     Atomic      Atomic             Coordinates (Angstroms)
 Number     Number       Type             X           Y           Z
 ---------------------------------------------------------------------
      1          6           0        1.172896    0.009744    0.003604
      2          6           0       -0.281272   -0.043991   -0.009271
      3          7           0       -1.421858    0.019562    0.001732
      4          1           0        1.503891    1.023248   -0.110825
      5          1           0        1.586429   -0.579151   -0.787535
      6          1           0        1.512947   -0.375551    0.920236
 ---------------------------------------------------------------------

 SCF Done:  E(RB2PLYPD3) =  -132.535249923     A.U. after   11 cycles
 E2(B2PLYPD3) =    -0.1791249329D+00 E(B2PLYPD3) =    -0.13271437485585D+03

 The electronic state is 1-A.
 Alpha  occ. eigenvalues --  -14.83797 -10.66252 -10.65795  -1.04596  -0.89800
 Alpha  occ. eigenvalues --   -0.59830  -0.54775  -0.54269  -0.44714  -0.39398
 Alpha  occ. eigenvalues --   -0.39369
 Alpha virt. eigenvalues --    0.03864   0.08254   0.08640   0.10207   0.11509
 Alpha virt. eigenvalues --    0.11585   0.15514   0.16155   0.16629   0.20027
 Alpha virt. eigenvalues --    0.20048   0.25544   0.33135   0.34990   0.35137

 Mulliken charges:
               1
     1  C   -0.077468
     2  C   -0.004237
     3  N   -0.200942
     4  H    0.096196
     5  H    0.091539
     6  H    0.094912
 Sum of Mulliken charges =   0.00000

 Dipole moment (field-independent basis, Debye):
    X=              4.1056    Y=             -0.0320    Z=              0.0035  Tot=              4.1057
 Quadrupole moment (field-independent basis, Debye-Ang):
   XX=            -20.9387   YY=            -17.6404   ZZ=            -17.6939
   XY=              0.0611   XZ=             -0.0235   YZ=             -0.0195

 Normal termination of Gaussian 09 at Wed Aug 26 15:08:57 2020.
