 Gaussian 09, Revision D.01,
 Gaussian 09:  ES64L-G09RevD.01 24-Apr-2013

 --------------------
 #p B2PLYPD3/Def2QZVP
 --------------------

 ------------
 cyanomethane
 ------------
 Symbolic Z-matrix:
 Charge =  0 Multiplicity = 1

                         Standard orientation:
 ---------------------------------------------------------------------
 Center     Atomic      Atomic             Coordinates (Angstroms)
 Number     Number       Type             X           Y           Z
 ---------------------------------------------------------------------
      1          6           0        1.179099    0.008746    0.005444
      2          6           0       -0.275924   -0.004983   -0.013560
      3          7           0       -1.437525    0.000400    0.002998
      4          1           0        1.539843    1.004102   -0.174383
      5          1           0        1.596528   -0.678498   -0.749057
      6          1           0        1.507252   -0.350980    0.951151
 ---------------------------------------------------------------------

 SCF Done:  E(RB2PLYPD3) =  -132.534370503     A.U. after   12 cycles
 E2(B2PLYPD3) =    -0.1809717574D+00 E(B2PLYPD3) =    -0.13271534225999D+03

 The electronic state is 1-A.
 Alpha  occ. eigenvalues --  -14.84383 -10.66848 -10.66451  -1.03833  -0.89516
 Alpha  occ. eigenvalues --   -0.59891  -0.54827  -0.53527  -0.44808  -0.38972
 Alpha  occ. eigenvalues --   -0.38820
 Alpha virt. eigenvalues --    0.03798   0.07690   0.08068   0.10178   0.11263
 Alpha virt. eigenvalues --    0.11477   0.15400   0.16124   0.16492   0.20096
 Alpha virt. eigenvalues --    0.20158   0.25383   0.32646   0.34530   0.35061

 Mulliken charges:
               1
     1  C   -0.079730
     2  C   -0.000474
     3  N   -0.209985
     4  H    0.099620
     5  H    0.092744
     6  H    0.097825
 Sum of Mulliken charges =   0.00000

 Dipole moment (field-independent basis, Debye):
    X=              4.1436    Y=             -0.0120    Z=              0.0099  Tot=              4.1436
 Quadrupole moment (field-independent basis, Debye-Ang):
   XX=            -20.9779   YY=            -17.6869   ZZ=            -17.8402
   XY=             -0.0516   XZ=             -0.0142   YZ=             -0.0397

 Normal termination of Gaussian 09 at Thu Aug 27 00:10:19 2020.
