 Gaussian 09, Revision D.01,
 Gaussian 09:  ES64L-G09RevD.01 24-Apr-2013

 --------------------
 #p B2PLYPD3/Def2QZVP
 --------------------

 ------------
 cyanomethane
 ------------
 Symbolic Z-matrix:
 Charge =  0 Multiplicity = 1

                         Standard orientation:
 ---------------------------------------------------------------------
 Center     Atomic      Atomic             Coordinates (Angstroms)
 Number     Number       Type             X           Y           Z
 ---------------------------------------------------------------------
      1          6           0       -1.174948    0.029841    0.005807
      2          6           0        0.248941   -0.063032   -0.035045
      3          7           0        1.432138    0.034391    0.012750
      4          1           0       -1.406035   -0.441523    0.945031
      5          1           0       -1.501515   -0.611751   -0.781539
      6          1           0       -1.561367    1.011680   -0.077314
 ---------------------------------------------------------------------

 SCF Done:  E(RB2PLYPD3) =  -132.524276715     A.U. after   13 cycles
 E2(B2PLYPD3) =    -0.1834216953D+00 E(B2PLYPD3) =    -0.13270769841020D+03

 The electronic state is 1-A.
 Alpha  occ. eigenvalues --  -14.84897 -10.66910 -10.66306  -1.02863  -0.90572
 Alpha  occ. eigenvalues --   -0.59963  -0.55332  -0.54864  -0.44756  -0.38150
 Alpha  occ. eigenvalues --   -0.37892
 Alpha virt. eigenvalues --    0.03671   0.07095   0.08038   0.09857   0.11174
 Alpha virt. eigenvalues --    0.11280   0.14817   0.15570   0.16794   0.20226
 Alpha virt. eigenvalues --    0.20381   0.26156   0.32906   0.34169   0.35167

 Mulliken charges:
               1
     1  C   -0.090575
     2  C    0.005612
     3  N   -0.224779
     4  H    0.103261
     5  H    0.099708
     6  H    0.106774
 Sum of Mulliken charges =   0.00000

 Dipole moment (field-independent basis, Debye):
    X=             -4.1372    Y=             -0.0612    Z=             -0.0054  Tot=              4.1377
 Quadrupole moment (field-independent basis, Debye-Ang):
   XX=            -21.2778   YY=            -17.6264   ZZ=            -17.8116
   XY=             -0.1932   XZ=              0.0105   YZ=             -0.0258

 Normal termination of Gaussian 09 at Wed Aug 26 23:27:59 2020.
