 Gaussian 09, Revision D.01,
 Gaussian 09:  ES64L-G09RevD.01 24-Apr-2013

 --------------------
 #p B2PLYPD3/Def2QZVP
 --------------------

 ------------
 cyanomethane
 ------------
 Symbolic Z-matrix:
 Charge =  0 Multiplicity = 1

                         Standard orientation:
 ---------------------------------------------------------------------
 Center     Atomic      Atomic             Coordinates (Angstroms)
 Number     Number       Type             X           Y           Z
 ---------------------------------------------------------------------
      1          6           0       -1.187099    0.003090    0.003581
      2          6           0        0.275773   -0.019329   -0.018611
      3          7           0        1.430461    0.013642    0.011167
      4          1           0       -1.528634   -0.208088    1.007562
      5          1           0       -1.460514   -0.772726   -0.674889
      6          1           0       -1.556118    0.982749   -0.320665
 ---------------------------------------------------------------------

 SCF Done:  E(RB2PLYPD3) =  -132.533894000     A.U. after   12 cycles
 E2(B2PLYPD3) =    -0.1804710533D+00 E(B2PLYPD3) =    -0.13271436505375D+03

 The electronic state is 1-A.
 Alpha  occ. eigenvalues --  -14.84075 -10.66978 -10.66138  -1.03983  -0.89477
 Alpha  occ. eigenvalues --   -0.58954  -0.54874  -0.54102  -0.44631  -0.38993
 Alpha  occ. eigenvalues --   -0.38969
 Alpha virt. eigenvalues --    0.03766   0.07868   0.08527   0.10162   0.11316
 Alpha virt. eigenvalues --    0.11424   0.15288   0.15558   0.16506   0.20094
 Alpha virt. eigenvalues --    0.20142   0.25245   0.32738   0.34631   0.34681

 Mulliken charges:
               1
     1  C   -0.094636
     2  C   -0.003653
     3  N   -0.208173
     4  H    0.101721
     5  H    0.103538
     6  H    0.101204
 Sum of Mulliken charges =   0.00000

 Dipole moment (field-independent basis, Debye):
    X=             -4.1145    Y=             -0.0260    Z=             -0.0141  Tot=              4.1146
 Quadrupole moment (field-independent basis, Debye-Ang):
   XX=            -21.2295   YY=            -17.6567   ZZ=            -17.6918
   XY=             -0.1279   XZ=             -0.0982   YZ=              0.0174

 Normal termination of Gaussian 09 at Wed Aug 26 10:49:51 2020.
