 Gaussian 09, Revision D.01,
 Gaussian 09:  ES64L-G09RevD.01 24-Apr-2013

 --------------------
 #p B2PLYPD3/Def2QZVP
 --------------------

 ------------
 cyanomethane
 ------------
 Symbolic Z-matrix:
 Charge =  0 Multiplicity = 1

                         Standard orientation:
 ---------------------------------------------------------------------
 Center     Atomic      Atomic             Coordinates (Angstroms)
 Number     Number       Type             X           Y           Z
 ---------------------------------------------------------------------
      1          6           0       -1.162312    0.046144    0.007575
      2          6           0        0.252442   -0.008789    0.057584
      3          7           0        1.428470    0.003848   -0.037733
      4          1           0       -1.403861   -0.378191    0.929986
      5          1           0       -1.549101   -0.856010   -0.757226
      6          1           0       -1.587109    0.983135   -0.299577
 ---------------------------------------------------------------------

 SCF Done:  E(RB2PLYPD3) =  -132.510308334     A.U. after   12 cycles
 E2(B2PLYPD3) =    -0.1836375468D+00 E(B2PLYPD3) =    -0.13269394588053D+03

 The electronic state is 1-A.
 Alpha  occ. eigenvalues --  -14.84748 -10.67700 -10.66735  -1.03228  -0.89969
 Alpha  occ. eigenvalues --   -0.59856  -0.56704  -0.51004  -0.44832  -0.38465
 Alpha  occ. eigenvalues --   -0.37511
 Alpha virt. eigenvalues --    0.02946   0.06076   0.08122   0.09782   0.11038
 Alpha virt. eigenvalues --    0.11945   0.14780   0.15507   0.17318   0.20114
 Alpha virt. eigenvalues --    0.20406   0.26093   0.30695   0.33350   0.35696

 Mulliken charges:
               1
     1  C   -0.106409
     2  C    0.010077
     3  N   -0.219778
     4  H    0.109011
     5  H    0.089276
     6  H    0.117823
 Sum of Mulliken charges =   0.00000

 Dipole moment (field-independent basis, Debye):
    X=             -4.1097    Y=             -0.0266    Z=              0.0852  Tot=              4.1107
 Quadrupole moment (field-independent basis, Debye-Ang):
   XX=            -21.3396   YY=            -17.5444   ZZ=            -18.0126
   XY=             -0.0125   XZ=              0.2455   YZ=             -0.2254

 Normal termination of Gaussian 09 at Wed Aug 26 22:50:29 2020.
