 Gaussian 09, Revision D.01,
 Gaussian 09:  ES64L-G09RevD.01 24-Apr-2013

 --------------------
 #p B2PLYPD3/Def2QZVP
 --------------------

 ------------
 cyanomethane
 ------------
 Symbolic Z-matrix:
 Charge =  0 Multiplicity = 1

                         Standard orientation:
 ---------------------------------------------------------------------
 Center     Atomic      Atomic             Coordinates (Angstroms)
 Number     Number       Type             X           Y           Z
 ---------------------------------------------------------------------
      1          6           0        1.165860    0.017250   -0.005277
      2          6           0       -0.273068    0.000215   -0.027003
      3          7           0       -1.431781   -0.006840    0.011343
      4          1           0        1.489398    1.025947    0.080376
      5          1           0        1.627091   -0.504946   -0.846174
      6          1           0        1.549234   -0.577913    0.880080
 ---------------------------------------------------------------------

 SCF Done:  E(RB2PLYPD3) =  -132.532042305     A.U. after   11 cycles
 E2(B2PLYPD3) =    -0.1810608888D+00 E(B2PLYPD3) =    -0.13271310319393D+03

 The electronic state is 1-A.
 Alpha  occ. eigenvalues --  -14.84337 -10.67143 -10.66358  -1.03991  -0.89430
 Alpha  occ. eigenvalues --   -0.60240  -0.55195  -0.52330  -0.44860  -0.39045
 Alpha  occ. eigenvalues --   -0.38626
 Alpha virt. eigenvalues --    0.03672   0.07241   0.07960   0.10149   0.11260
 Alpha virt. eigenvalues --    0.11807   0.15453   0.16223   0.16664   0.20029
 Alpha virt. eigenvalues --    0.20204   0.25694   0.32759   0.33646   0.35335

 Mulliken charges:
               1
     1  C   -0.080597
     2  C    0.001554
     3  N   -0.208533
     4  H    0.103134
     5  H    0.094167
     6  H    0.090275
 Sum of Mulliken charges =   0.00000

 Dipole moment (field-independent basis, Debye):
    X=              4.1319    Y=             -0.0111    Z=             -0.0068  Tot=              4.1319
 Quadrupole moment (field-independent basis, Debye-Ang):
   XX=            -20.9449   YY=            -17.6130   ZZ=            -17.9624
   XY=             -0.1831   XZ=              0.0326   YZ=              0.0477

 Normal termination of Gaussian 09 at Wed Aug 26 14:53:50 2020.
