 Gaussian 09, Revision D.01,
 Gaussian 09:  ES64L-G09RevD.01 24-Apr-2013

 --------------------
 #p B2PLYPD3/Def2QZVP
 --------------------

 ------------
 cyanomethane
 ------------
 Symbolic Z-matrix:
 Charge =  0 Multiplicity = 1

                         Standard orientation:
 ---------------------------------------------------------------------
 Center     Atomic      Atomic             Coordinates (Angstroms)
 Number     Number       Type             X           Y           Z
 ---------------------------------------------------------------------
      1          6           0       -1.184746    0.008344    0.009818
      2          6           0        0.271987   -0.019239    0.005927
      3          7           0        1.437763    0.006582   -0.005508
      4          1           0       -1.509698    0.014396    1.018438
      5          1           0       -1.568936   -0.896239   -0.530731
      6          1           0       -1.509150    0.901133   -0.543623
 ---------------------------------------------------------------------

 SCF Done:  E(RB2PLYPD3) =  -132.532742073     A.U. after   11 cycles
 E2(B2PLYPD3) =    -0.1815190034D+00 E(B2PLYPD3) =    -0.13271426107660D+03

 The electronic state is 1-A.
 Alpha  occ. eigenvalues --  -14.84419 -10.67330 -10.66497  -1.03601  -0.89299
 Alpha  occ. eigenvalues --   -0.59198  -0.55010  -0.53352  -0.44724  -0.38809
 Alpha  occ. eigenvalues --   -0.38610
 Alpha virt. eigenvalues --    0.03700   0.07483   0.08051   0.10156   0.11178
 Alpha virt. eigenvalues --    0.11447   0.15281   0.15997   0.16069   0.20124
 Alpha virt. eigenvalues --    0.20179   0.25320   0.32442   0.33993   0.34918

 Mulliken charges:
               1
     1  C   -0.093311
     2  C   -0.000748
     3  N   -0.212475
     4  H    0.105848
     5  H    0.097994
     6  H    0.102693
 Sum of Mulliken charges =   0.00000

 Dipole moment (field-independent basis, Debye):
    X=             -4.1330    Y=             -0.0042    Z=              0.0044  Tot=              4.1330
 Quadrupole moment (field-independent basis, Debye-Ang):
   XX=            -21.2070   YY=            -17.7907   ZZ=            -17.6869
   XY=              0.0041   XZ=              0.0638   YZ=             -0.0212

 Normal termination of Gaussian 09 at Wed Aug 26 23:28:48 2020.
