 Gaussian 09, Revision D.01,
 Gaussian 09:  ES64L-G09RevD.01 24-Apr-2013

 --------------------
 #p B2PLYPD3/Def2QZVP
 --------------------

 ------------
 cyanomethane
 ------------
 Symbolic Z-matrix:
 Charge =  0 Multiplicity = 1

                         Standard orientation:
 ---------------------------------------------------------------------
 Center     Atomic      Atomic             Coordinates (Angstroms)
 Number     Number       Type             X           Y           Z
 ---------------------------------------------------------------------
      1          6           0       -1.170056   -0.019262   -0.006749
      2          6           0        0.291466    0.075270    0.010743
      3          7           0        1.447562   -0.039622   -0.000997
      4          1           0       -1.603669   -0.755178   -0.657250
      5          1           0       -1.577010    0.908034   -0.327621
      6          1           0       -1.680713   -0.211551    0.967886
 ---------------------------------------------------------------------

 SCF Done:  E(RB2PLYPD3) =  -132.528490126     A.U. after   12 cycles
 E2(B2PLYPD3) =    -0.1815000635D+00 E(B2PLYPD3) =    -0.13270999018989D+03

 The electronic state is 1-A.
 Alpha  occ. eigenvalues --  -14.84804 -10.66952 -10.66882  -1.04078  -0.89024
 Alpha  occ. eigenvalues --   -0.61334  -0.53537  -0.52388  -0.45189  -0.39148
 Alpha  occ. eigenvalues --   -0.39067
 Alpha virt. eigenvalues --    0.03537   0.06961   0.07853   0.09956   0.11360
 Alpha virt. eigenvalues --    0.11593   0.15555   0.16193   0.17826   0.19934
 Alpha virt. eigenvalues --    0.20379   0.25687   0.32685   0.34550   0.34994

 Mulliken charges:
               1
     1  C   -0.058245
     2  C    0.010720
     3  N   -0.206555
     4  H    0.087955
     5  H    0.083871
     6  H    0.082254
 Sum of Mulliken charges =   0.00000

 Dipole moment (field-independent basis, Debye):
    X=             -4.1387    Y=              0.0689    Z=             -0.0178  Tot=              4.1393
 Quadrupole moment (field-independent basis, Debye-Ang):
   XX=            -20.4435   YY=            -17.9368   ZZ=            -17.9803
   XY=              0.2190   XZ=             -0.0186   YZ=              0.0092

 Normal termination of Gaussian 09 at Wed Aug 26 23:06:56 2020.
