 Gaussian 09, Revision D.01,
 Gaussian 09:  ES64L-G09RevD.01 24-Apr-2013

 --------------------
 #p B2PLYPD3/Def2QZVP
 --------------------

 ------------
 cyanomethane
 ------------
 Symbolic Z-matrix:
 Charge =  0 Multiplicity = 1

                         Standard orientation:
 ---------------------------------------------------------------------
 Center     Atomic      Atomic             Coordinates (Angstroms)
 Number     Number       Type             X           Y           Z
 ---------------------------------------------------------------------
      1          6           0        1.156794   -0.015110    0.009580
      2          6           0       -0.268164   -0.007198   -0.041858
      3          7           0       -1.432765    0.003379    0.016886
      4          1           0        1.558538    0.963110   -0.339820
      5          1           0        1.624586   -0.746091   -0.579265
      6          1           0        1.514455   -0.106821    0.994553
 ---------------------------------------------------------------------

 SCF Done:  E(RB2PLYPD3) =  -132.530769047     A.U. after   11 cycles
 E2(B2PLYPD3) =    -0.1813950304D+00 E(B2PLYPD3) =    -0.13271216407749D+03

 The electronic state is 1-A.
 Alpha  occ. eigenvalues --  -14.84594 -10.66583 -10.66229  -1.03822  -0.90137
 Alpha  occ. eigenvalues --   -0.61470  -0.54889  -0.53227  -0.44992  -0.38885
 Alpha  occ. eigenvalues --   -0.38579
 Alpha virt. eigenvalues --    0.03793   0.07390   0.07743   0.10093   0.11333
 Alpha virt. eigenvalues --    0.11681   0.15699   0.16276   0.16969   0.20121
 Alpha virt. eigenvalues --    0.20199   0.26015   0.32905   0.34321   0.35538

 Mulliken charges:
               1
     1  C   -0.061379
     2  C    0.005569
     3  N   -0.211949
     4  H    0.084494
     5  H    0.090871
     6  H    0.092394
 Sum of Mulliken charges =   0.00000

 Dipole moment (field-independent basis, Debye):
    X=              4.1531    Y=              0.0045    Z=             -0.0065  Tot=              4.1531
 Quadrupole moment (field-independent basis, Debye-Ang):
   XX=            -20.7034   YY=            -17.8296   ZZ=            -17.8129
   XY=              0.0114   XZ=              0.0585   YZ=              0.0430

 Normal termination of Gaussian 09 at Wed Aug 26 11:47:56 2020.
