 Gaussian 09, Revision D.01,
 Gaussian 09:  ES64L-G09RevD.01 24-Apr-2013

 --------------------
 #p B2PLYPD3/Def2QZVP
 --------------------

 ------------
 cyanomethane
 ------------
 Symbolic Z-matrix:
 Charge =  0 Multiplicity = 1

                         Standard orientation:
 ---------------------------------------------------------------------
 Center     Atomic      Atomic             Coordinates (Angstroms)
 Number     Number       Type             X           Y           Z
 ---------------------------------------------------------------------
      1          6           0        1.171820    0.002950    0.006937
      2          6           0       -0.284180   -0.014852   -0.013902
      3          7           0       -1.432878    0.007639    0.009316
      4          1           0        1.602676   -0.357902    0.953620
      5          1           0        1.563440    1.030774   -0.178233
      6          1           0        1.538188   -0.654926   -0.798809
 ---------------------------------------------------------------------

 SCF Done:  E(RB2PLYPD3) =  -132.534661281     A.U. after   12 cycles
 E2(B2PLYPD3) =    -0.1802744119D+00 E(B2PLYPD3) =    -0.13271493569320D+03

 The electronic state is 1-A.
 Alpha  occ. eigenvalues --  -14.84112 -10.67583 -10.66174  -1.04378  -0.88789
 Alpha  occ. eigenvalues --   -0.59829  -0.53404  -0.53253  -0.44841  -0.39208
 Alpha  occ. eigenvalues --   -0.39142
 Alpha virt. eigenvalues --    0.03665   0.07568   0.07889   0.10158   0.11576
 Alpha virt. eigenvalues --    0.11606   0.15431   0.16106   0.16915   0.20035
 Alpha virt. eigenvalues --    0.20088   0.25420   0.32695   0.34221   0.34570

 Mulliken charges:
               1
     1  C   -0.085871
     2  C   -0.000162
     3  N   -0.202341
     4  H    0.096575
     5  H    0.096312
     6  H    0.095487
 Sum of Mulliken charges =   0.00000

 Dipole moment (field-independent basis, Debye):
    X=              4.1148    Y=             -0.0172    Z=             -0.0182  Tot=              4.1148
 Quadrupole moment (field-independent basis, Debye-Ang):
   XX=            -20.9455   YY=            -17.7645   ZZ=            -17.8038
   XY=              0.0321   XZ=              0.0889   YZ=             -0.0031

 Normal termination of Gaussian 09 at Thu Aug 27 00:01:27 2020.
