 Gaussian 09, Revision D.01,
 Gaussian 09:  ES64L-G09RevD.01 24-Apr-2013

 --------------------
 #p B2PLYPD3/Def2QZVP
 --------------------

 ------------
 cyanomethane
 ------------
 Symbolic Z-matrix:
 Charge =  0 Multiplicity = 1

                         Standard orientation:
 ---------------------------------------------------------------------
 Center     Atomic      Atomic             Coordinates (Angstroms)
 Number     Number       Type             X           Y           Z
 ---------------------------------------------------------------------
      1          6           0        1.161257   -0.003744    0.009787
      2          6           0       -0.279533   -0.024515    0.002012
      3          7           0       -1.426738    0.015454    0.000074
      4          1           0        1.591487    1.065808   -0.075298
      5          1           0        1.524541   -0.549173   -0.879288
      6          1           0        1.580790   -0.455260    0.883276
 ---------------------------------------------------------------------

 SCF Done:  E(RB2PLYPD3) =  -132.532314308     A.U. after   12 cycles
 E2(B2PLYPD3) =    -0.1802421646D+00 E(B2PLYPD3) =    -0.13271255647232D+03

 The electronic state is 1-A.
 Alpha  occ. eigenvalues --  -14.84066 -10.67493 -10.66069  -1.04471  -0.89037
 Alpha  occ. eigenvalues --   -0.60147  -0.54078  -0.52530  -0.44862  -0.39250
 Alpha  occ. eigenvalues --   -0.38986
 Alpha virt. eigenvalues --    0.03585   0.07249   0.08032   0.10135   0.11546
 Alpha virt. eigenvalues --    0.11838   0.15543   0.16147   0.16933   0.20026
 Alpha virt. eigenvalues --    0.20105   0.25684   0.32719   0.33735   0.34849

 Mulliken charges:
               1
     1  C   -0.085166
     2  C    0.000643
     3  N   -0.201846
     4  H    0.092415
     5  H    0.095100
     6  H    0.098855
 Sum of Mulliken charges =   0.00000

 Dipole moment (field-independent basis, Debye):
    X=              4.1037    Y=             -0.0404    Z=             -0.0064  Tot=              4.1039
 Quadrupole moment (field-independent basis, Debye-Ang):
   XX=            -20.9332   YY=            -17.7788   ZZ=            -17.7730
   XY=              0.0896   XZ=              0.0211   YZ=             -0.0235

 Normal termination of Gaussian 09 at Wed Aug 26 14:35:02 2020.
