 Gaussian 09, Revision D.01,
 Gaussian 09:  ES64L-G09RevD.01 24-Apr-2013

 --------------------
 #p B2PLYPD3/Def2QZVP
 --------------------

 ------------
 cyanomethane
 ------------
 Symbolic Z-matrix:
 Charge =  0 Multiplicity = 1

                         Standard orientation:
 ---------------------------------------------------------------------
 Center     Atomic      Atomic             Coordinates (Angstroms)
 Number     Number       Type             X           Y           Z
 ---------------------------------------------------------------------
      1          6           0        1.173591   -0.003638   -0.004830
      2          6           0       -0.285691   -0.021537    0.002604
      3          7           0       -1.438366    0.009835    0.001222
      4          1           0        1.607983    0.060499    1.011666
      5          1           0        1.542072    0.899328   -0.531642
      6          1           0        1.591108   -0.877620   -0.475220
 ---------------------------------------------------------------------

 SCF Done:  E(RB2PLYPD3) =  -132.534582343     A.U. after   11 cycles
 E2(B2PLYPD3) =    -0.1805184249D+00 E(B2PLYPD3) =    -0.13271510076761D+03

 The electronic state is 1-A.
 Alpha  occ. eigenvalues --  -14.84285 -10.67353 -10.66374  -1.04248  -0.88902
 Alpha  occ. eigenvalues --   -0.60217  -0.53926  -0.52788  -0.44907  -0.39244
 Alpha  occ. eigenvalues --   -0.39060
 Alpha virt. eigenvalues --    0.03691   0.07537   0.07905   0.10179   0.11384
 Alpha virt. eigenvalues --    0.11653   0.15420   0.16532   0.16717   0.20021
 Alpha virt. eigenvalues --    0.20112   0.25343   0.32659   0.34222   0.34925

 Mulliken charges:
               1
     1  C   -0.076814
     2  C    0.001057
     3  N   -0.204130
     4  H    0.090736
     5  H    0.093417
     6  H    0.095734
 Sum of Mulliken charges =   0.00000

 Dipole moment (field-independent basis, Debye):
    X=              4.1337    Y=             -0.0066    Z=              0.0022  Tot=              4.1337
 Quadrupole moment (field-independent basis, Debye-Ang):
   XX=            -20.8196   YY=            -17.7642   ZZ=            -17.8851
   XY=              0.0435   XZ=              0.0536   YZ=              0.0264

 Normal termination of Gaussian 09 at Thu Aug 27 00:00:56 2020.
