 Gaussian 09, Revision D.01,
 Gaussian 09:  ES64L-G09RevD.01 24-Apr-2013

 --------------------
 #p B2PLYPD3/Def2QZVP
 --------------------

 ------------
 cyanomethane
 ------------
 Symbolic Z-matrix:
 Charge =  0 Multiplicity = 1

                         Standard orientation:
 ---------------------------------------------------------------------
 Center     Atomic      Atomic             Coordinates (Angstroms)
 Number     Number       Type             X           Y           Z
 ---------------------------------------------------------------------
      1          6           0        1.164622    0.035267    0.021288
      2          6           0       -0.270361   -0.061442   -0.043352
      3          7           0       -1.455340    0.032090    0.019808
      4          1           0        1.559234   -0.799993   -0.543082
      5          1           0        1.596999   -0.120836    0.941839
      6          1           0        1.665587    0.853247   -0.405029
 ---------------------------------------------------------------------

 SCF Done:  E(RB2PLYPD3) =  -132.519327967     A.U. after   12 cycles
 E2(B2PLYPD3) =    -0.1838579433D+00 E(B2PLYPD3) =    -0.13270318591045D+03

 The electronic state is 1-A.
 Alpha  occ. eigenvalues --  -14.85532 -10.67612 -10.65868  -1.03016  -0.90298
 Alpha  occ. eigenvalues --   -0.62679  -0.54584  -0.52894  -0.45302  -0.38597
 Alpha  occ. eigenvalues --   -0.38127
 Alpha virt. eigenvalues --    0.03680   0.06740   0.07079   0.09789   0.11235
 Alpha virt. eigenvalues --    0.11530   0.15530   0.15838   0.18283   0.20142
 Alpha virt. eigenvalues --    0.20841   0.26143   0.32727   0.34261   0.35909

 Mulliken charges:
               1
     1  C   -0.044511
     2  C    0.019003
     3  N   -0.219527
     4  H    0.074076
     5  H    0.084820
     6  H    0.086140
 Sum of Mulliken charges =   0.00000

 Dipole moment (field-independent basis, Debye):
    X=              4.1941    Y=             -0.0826    Z=             -0.0332  Tot=              4.1950
 Quadrupole moment (field-independent basis, Debye-Ang):
   XX=            -20.3516   YY=            -18.0032   ZZ=            -18.0064
   XY=              0.1083   XZ=              0.0628   YZ=             -0.0782

 Normal termination of Gaussian 09 at Wed Aug 26 22:11:22 2020.
