 Gaussian 09, Revision D.01,
 Gaussian 09:  ES64L-G09RevD.01 24-Apr-2013

 --------------------
 #p B2PLYPD3/Def2QZVP
 --------------------

 ------------
 cyanomethane
 ------------
 Symbolic Z-matrix:
 Charge =  0 Multiplicity = 1

                         Standard orientation:
 ---------------------------------------------------------------------
 Center     Atomic      Atomic             Coordinates (Angstroms)
 Number     Number       Type             X           Y           Z
 ---------------------------------------------------------------------
      1          6           0       -1.171236    0.005699    0.004102
      2          6           0        0.279194    0.059969    0.001462
      3          7           0        1.412100   -0.014941   -0.002728
      4          1           0       -1.434556   -0.354862    0.873354
      5          1           0       -1.368506   -0.855185   -0.634164
      6          1           0       -1.729390    0.920626   -0.253478
 ---------------------------------------------------------------------

 SCF Done:  E(RB2PLYPD3) =  -132.521334977     A.U. after   12 cycles
 E2(B2PLYPD3) =    -0.1786945017D+00 E(B2PLYPD3) =    -0.13270002947880D+03

 The electronic state is 1-A.
 Alpha  occ. eigenvalues --  -14.83459 -10.65954 -10.65559  -1.04868  -0.90493
 Alpha  occ. eigenvalues --   -0.59982  -0.55619  -0.53707  -0.44592  -0.39721
 Alpha  occ. eigenvalues --   -0.39146
 Alpha virt. eigenvalues --    0.03840   0.08048   0.09239   0.10297   0.11393
 Alpha virt. eigenvalues --    0.12127   0.15240   0.15757   0.17468   0.19912
 Alpha virt. eigenvalues --    0.20216   0.25550   0.32701   0.34214   0.35992

 Mulliken charges:
               1
     1  C   -0.092980
     2  C   -0.001668
     3  N   -0.199531
     4  H    0.100286
     5  H    0.092569
     6  H    0.101325
 Sum of Mulliken charges =   0.00000

 Dipole moment (field-independent basis, Debye):
    X=             -4.1073    Y=             -0.0535    Z=              0.0543  Tot=              4.1080
 Quadrupole moment (field-independent basis, Debye-Ang):
   XX=            -20.9380   YY=            -17.3179   ZZ=            -17.9361
   XY=             -0.0284   XZ=             -0.0765   YZ=             -0.0706

 Normal termination of Gaussian 09 at Wed Aug 26 22:40:39 2020.
