 Gaussian 09, Revision D.01,
 Gaussian 09:  ES64L-G09RevD.01 24-Apr-2013

 --------------------
 #p B2PLYPD3/Def2QZVP
 --------------------

 ------------
 cyanomethane
 ------------
 Symbolic Z-matrix:
 Charge =  0 Multiplicity = 1

                         Standard orientation:
 ---------------------------------------------------------------------
 Center     Atomic      Atomic             Coordinates (Angstroms)
 Number     Number       Type             X           Y           Z
 ---------------------------------------------------------------------
      1          6           0       -1.176102    0.001620   -0.010043
      2          6           0        0.268800   -0.023842    0.003175
      3          7           0        1.434007    0.011897    0.000177
      4          1           0       -1.542548   -0.002279    1.012540
      5          1           0       -1.529633   -0.869748   -0.502078
      6          1           0       -1.522053    0.922079   -0.470499
 ---------------------------------------------------------------------

 SCF Done:  E(RB2PLYPD3) =  -132.533785305     A.U. after   11 cycles
 E2(B2PLYPD3) =    -0.1812905139D+00 E(B2PLYPD3) =    -0.13271507581871D+03

 The electronic state is 1-A.
 Alpha  occ. eigenvalues --  -14.84422 -10.66703 -10.66451  -1.03667  -0.89797
 Alpha  occ. eigenvalues --   -0.59831  -0.55161  -0.53752  -0.44776  -0.38815
 Alpha  occ. eigenvalues --   -0.38628
 Alpha virt. eigenvalues --    0.03793   0.07661   0.08050   0.10138   0.11202
 Alpha virt. eigenvalues --    0.11501   0.15433   0.15969   0.16377   0.20108
 Alpha virt. eigenvalues --    0.20210   0.25566   0.32824   0.34331   0.35101

 Mulliken charges:
               1
     1  C   -0.082060
     2  C   -0.000383
     3  N   -0.212680
     4  H    0.094460
     5  H    0.100663
     6  H    0.100000
 Sum of Mulliken charges =   0.00000

 Dipole moment (field-independent basis, Debye):
    X=             -4.1403    Y=             -0.0134    Z=              0.0185  Tot=              4.1404
 Quadrupole moment (field-independent basis, Debye-Ang):
   XX=            -21.0681   YY=            -17.6294   ZZ=            -17.8408
   XY=             -0.0610   XZ=             -0.0634   YZ=              0.0202

 Normal termination of Gaussian 09 at Wed Aug 26 23:59:02 2020.
