 Gaussian 09, Revision D.01,
 Gaussian 09:  ES64L-G09RevD.01 24-Apr-2013

 --------------------
 #p B2PLYPD3/Def2QZVP
 --------------------

 ------------
 cyanomethane
 ------------
 Symbolic Z-matrix:
 Charge =  0 Multiplicity = 1

                         Standard orientation:
 ---------------------------------------------------------------------
 Center     Atomic      Atomic             Coordinates (Angstroms)
 Number     Number       Type             X           Y           Z
 ---------------------------------------------------------------------
      1          6           0       -1.189287   -0.000087   -0.012469
      2          6           0        0.273049    0.014190    0.037231
      3          7           0        1.443342   -0.011271   -0.016513
      4          1           0       -1.478845    0.994619   -0.150959
      5          1           0       -1.576637   -0.378069    0.897131
      6          1           0       -1.550486   -0.622269   -0.779156
 ---------------------------------------------------------------------

 SCF Done:  E(RB2PLYPD3) =  -132.530559922     A.U. after   12 cycles
 E2(B2PLYPD3) =    -0.1815682362D+00 E(B2PLYPD3) =    -0.13271212815828D+03

 The electronic state is 1-A.
 Alpha  occ. eigenvalues --  -14.84651 -10.66737 -10.66095  -1.03419  -0.90100
 Alpha  occ. eigenvalues --   -0.60063  -0.55449  -0.54316  -0.44805  -0.38768
 Alpha  occ. eigenvalues --   -0.38699
 Alpha virt. eigenvalues --    0.03867   0.07772   0.08325   0.10146   0.11051
 Alpha virt. eigenvalues --    0.11285   0.15334   0.15891   0.16549   0.20151
 Alpha virt. eigenvalues --    0.20201   0.25318   0.32701   0.35038   0.35290

 Mulliken charges:
               1
     1  C   -0.072283
     2  C    0.000523
     3  N   -0.215302
     4  H    0.099116
     5  H    0.092116
     6  H    0.095830
 Sum of Mulliken charges =   0.00000

 Dipole moment (field-independent basis, Debye):
    X=             -4.1627    Y=              0.0075    Z=              0.0245  Tot=              4.1628
 Quadrupole moment (field-independent basis, Debye-Ang):
   XX=            -20.9451   YY=            -17.6729   ZZ=            -17.8415
   XY=              0.1478   XZ=              0.0455   YZ=             -0.0004

 Normal termination of Gaussian 09 at Wed Aug 26 11:06:52 2020.
