 Gaussian 09, Revision D.01,
 Gaussian 09:  ES64L-G09RevD.01 24-Apr-2013

 --------------------
 #p B2PLYPD3/Def2QZVP
 --------------------

 ------------
 cyanomethane
 ------------
 Symbolic Z-matrix:
 Charge =  0 Multiplicity = 1

                         Standard orientation:
 ---------------------------------------------------------------------
 Center     Atomic      Atomic             Coordinates (Angstroms)
 Number     Number       Type             X           Y           Z
 ---------------------------------------------------------------------
      1          6           0        1.175333   -0.002798   -0.006603
      2          6           0       -0.272858   -0.033025    0.006182
      3          7           0       -1.446138    0.021499   -0.003179
      4          1           0        1.551381   -0.502248   -0.890288
      5          1           0        1.535195   -0.504369    0.904924
      6          1           0        1.621540    1.071068    0.010142
 ---------------------------------------------------------------------

 SCF Done:  E(RB2PLYPD3) =  -132.528739125     A.U. after   12 cycles
 E2(B2PLYPD3) =    -0.1826841960D+00 E(B2PLYPD3) =    -0.13271142332054D+03

 The electronic state is 1-A.
 Alpha  occ. eigenvalues --  -14.84844 -10.67866 -10.66915  -1.03398  -0.88895
 Alpha  occ. eigenvalues --   -0.59899  -0.54276  -0.52328  -0.44951  -0.38633
 Alpha  occ. eigenvalues --   -0.38412
 Alpha virt. eigenvalues --    0.03447   0.06677   0.07619   0.10075   0.11172
 Alpha virt. eigenvalues --    0.11515   0.15395   0.15892   0.16731   0.20122
 Alpha virt. eigenvalues --    0.20232   0.25549   0.32288   0.33582   0.34658

 Mulliken charges:
               1
     1  C   -0.087146
     2  C    0.004134
     3  N   -0.213638
     4  H    0.102254
     5  H    0.099524
     6  H    0.094872
 Sum of Mulliken charges =   0.00000

 Dipole moment (field-independent basis, Debye):
    X=              4.1439    Y=             -0.0415    Z=              0.0079  Tot=              4.1441
 Quadrupole moment (field-independent basis, Debye-Ang):
   XX=            -21.0095   YY=            -17.9028   ZZ=            -17.8280
   XY=              0.1560   XZ=             -0.0176   YZ=              0.0197

 Normal termination of Gaussian 09 at Wed Aug 26 14:52:17 2020.
