 Gaussian 09, Revision D.01,
 Gaussian 09:  ES64L-G09RevD.01 24-Apr-2013

 --------------------
 #p B2PLYPD3/Def2QZVP
 --------------------

 ------------
 cyanomethane
 ------------
 Symbolic Z-matrix:
 Charge =  0 Multiplicity = 1

                         Standard orientation:
 ---------------------------------------------------------------------
 Center     Atomic      Atomic             Coordinates (Angstroms)
 Number     Number       Type             X           Y           Z
 ---------------------------------------------------------------------
      1          6           0        1.140773   -0.001587   -0.026741
      2          6           0       -0.253764    0.052615    0.043734
      3          7           0       -1.435868   -0.025402   -0.012130
      4          1           0        1.663466   -0.478886    0.827661
      5          1           0        1.596851    0.916424   -0.066026
      6          1           0        1.468709   -0.565889   -0.778677
 ---------------------------------------------------------------------

 SCF Done:  E(RB2PLYPD3) =  -132.516125337     A.U. after   11 cycles
 E2(B2PLYPD3) =    -0.1831273564D+00 E(B2PLYPD3) =    -0.13269925269298D+03

 The electronic state is 1-A.
 Alpha  occ. eigenvalues --  -14.85201 -10.67086 -10.65088  -1.03245  -0.91307
 Alpha  occ. eigenvalues --   -0.63139  -0.56296  -0.52821  -0.45191  -0.38448
 Alpha  occ. eigenvalues --   -0.38027
 Alpha virt. eigenvalues --    0.03782   0.06666   0.07482   0.10022   0.11219
 Alpha virt. eigenvalues --    0.11748   0.15862   0.16755   0.16908   0.20129
 Alpha virt. eigenvalues --    0.20380   0.26644   0.32812   0.34728   0.36030

 Mulliken charges:
               1
     1  C   -0.039477
     2  C    0.013652
     3  N   -0.220443
     4  H    0.072119
     5  H    0.084218
     6  H    0.089930
 Sum of Mulliken charges =   0.00000

 Dipole moment (field-independent basis, Debye):
    X=              4.1956    Y=              0.0097    Z=             -0.0004  Tot=              4.1956
 Quadrupole moment (field-independent basis, Debye-Ang):
   XX=            -20.4003   YY=            -17.7861   ZZ=            -18.0091
   XY=             -0.1449   XZ=              0.0445   YZ=              0.0853

 Normal termination of Gaussian 09 at Wed Aug 26 18:52:15 2020.
