 Gaussian 09, Revision D.01,
 Gaussian 09:  ES64L-G09RevD.01 24-Apr-2013

 --------------------
 #p B2PLYPD3/Def2QZVP
 --------------------

 ------------
 cyanomethane
 ------------
 Symbolic Z-matrix:
 Charge =  0 Multiplicity = 1

                         Standard orientation:
 ---------------------------------------------------------------------
 Center     Atomic      Atomic             Coordinates (Angstroms)
 Number     Number       Type             X           Y           Z
 ---------------------------------------------------------------------
      1          6           0        1.161996    0.004118    0.015864
      2          6           0       -0.267167   -0.003268   -0.044192
      3          7           0       -1.431171    0.003870    0.020305
      4          1           0        1.585034    1.062406   -0.174574
      5          1           0        1.538500   -0.712386   -0.790549
      6          1           0        1.525688   -0.382209    0.992954
 ---------------------------------------------------------------------

 SCF Done:  E(RB2PLYPD3) =  -132.528009221     A.U. after   12 cycles
 E2(B2PLYPD3) =    -0.1821766635D+00 E(B2PLYPD3) =    -0.13271018588475D+03

 The electronic state is 1-A.
 Alpha  occ. eigenvalues --  -14.84495 -10.68280 -10.66481  -1.03748  -0.88799
 Alpha  occ. eigenvalues --   -0.59538  -0.53280  -0.52924  -0.44870  -0.38604
 Alpha  occ. eigenvalues --   -0.38453
 Alpha virt. eigenvalues --    0.03461   0.06831   0.07108   0.10031   0.11528
 Alpha virt. eigenvalues --    0.11648   0.15465   0.15702   0.16668   0.20120
 Alpha virt. eigenvalues --    0.20166   0.25899   0.32272   0.33418   0.34238

 Mulliken charges:
               1
     1  C   -0.101229
     2  C    0.005283
     3  N   -0.210589
     4  H    0.102317
     5  H    0.098909
     6  H    0.105309
 Sum of Mulliken charges =   0.00000

 Dipole moment (field-independent basis, Debye):
    X=              4.1006    Y=             -0.0260    Z=             -0.0157  Tot=              4.1007
 Quadrupole moment (field-independent basis, Debye-Ang):
   XX=            -21.2090   YY=            -17.7199   ZZ=            -17.8676
   XY=              0.0162   XZ=              0.1141   YZ=             -0.0286

 Normal termination of Gaussian 09 at Wed Aug 26 10:52:25 2020.
