 Gaussian 09, Revision D.01,
 Gaussian 09:  ES64L-G09RevD.01 24-Apr-2013

 --------------------
 #p B2PLYPD3/Def2QZVP
 --------------------

 ------------
 cyanomethane
 ------------
 Symbolic Z-matrix:
 Charge =  0 Multiplicity = 1

                         Standard orientation:
 ---------------------------------------------------------------------
 Center     Atomic      Atomic             Coordinates (Angstroms)
 Number     Number       Type             X           Y           Z
 ---------------------------------------------------------------------
      1          6           0        1.186259   -0.003310    0.004205
      2          6           0       -0.276989    0.021434   -0.000100
      3          7           0       -1.437742   -0.013039   -0.004164
      4          1           0        1.530406    0.929014   -0.409469
      5          1           0        1.590631   -0.833125   -0.593312
      6          1           0        1.487539   -0.113357    1.007295
 ---------------------------------------------------------------------

 SCF Done:  E(RB2PLYPD3) =  -132.533696356     A.U. after   12 cycles
 E2(B2PLYPD3) =    -0.1808951066D+00 E(B2PLYPD3) =    -0.13271459146268D+03

 The electronic state is 1-A.
 Alpha  occ. eigenvalues --  -14.84330 -10.66833 -10.66411  -1.03805  -0.89519
 Alpha  occ. eigenvalues --   -0.59473  -0.54995  -0.53774  -0.44742  -0.38952
 Alpha  occ. eigenvalues --   -0.38884
 Alpha virt. eigenvalues --    0.03782   0.07719   0.08372   0.10176   0.11232
 Alpha virt. eigenvalues --    0.11381   0.15343   0.15813   0.16552   0.20111
 Alpha virt. eigenvalues --    0.20152   0.25237   0.32642   0.34584   0.35008

 Mulliken charges:
               1
     1  C   -0.084701
     2  C   -0.001916
     3  N   -0.210112
     4  H    0.098715
     5  H    0.096635
     6  H    0.101380
 Sum of Mulliken charges =   0.00000

 Dipole moment (field-independent basis, Debye):
    X=              4.1389    Y=              0.0200    Z=              0.0142  Tot=              4.1389
 Quadrupole moment (field-independent basis, Debye-Ang):
   XX=            -21.0618   YY=            -17.7379   ZZ=            -17.7331
   XY=             -0.1038   XZ=             -0.0716   YZ=             -0.0261

 Normal termination of Gaussian 09 at Wed Aug 26 19:07:16 2020.
