 Gaussian 09, Revision D.01,
 Gaussian 09:  ES64L-G09RevD.01 24-Apr-2013

 --------------------
 #p B2PLYPD3/Def2QZVP
 --------------------

 ------------
 cyanomethane
 ------------
 Symbolic Z-matrix:
 Charge =  0 Multiplicity = 1

                         Standard orientation:
 ---------------------------------------------------------------------
 Center     Atomic      Atomic             Coordinates (Angstroms)
 Number     Number       Type             X           Y           Z
 ---------------------------------------------------------------------
      1          6           0       -1.180357    0.008873    0.008643
      2          6           0        0.284519   -0.002797    0.012981
      3          7           0        1.433407   -0.002241   -0.008289
      4          1           0       -1.587862   -0.837587   -0.612677
      5          1           0       -1.521512    0.921417   -0.445372
      6          1           0       -1.549444   -0.104600    0.986328
 ---------------------------------------------------------------------

 SCF Done:  E(RB2PLYPD3) =  -132.534229703     A.U. after   11 cycles
 E2(B2PLYPD3) =    -0.1799392895D+00 E(B2PLYPD3) =    -0.13271416899217D+03

 The electronic state is 1-A.
 Alpha  occ. eigenvalues --  -14.84051 -10.67008 -10.66124  -1.04322  -0.89219
 Alpha  occ. eigenvalues --   -0.59668  -0.54983  -0.52952  -0.44765  -0.39367
 Alpha  occ. eigenvalues --   -0.39110
 Alpha virt. eigenvalues --    0.03749   0.07770   0.08456   0.10213   0.11304
 Alpha virt. eigenvalues --    0.11643   0.15376   0.16369   0.16449   0.20014
 Alpha virt. eigenvalues --    0.20105   0.25208   0.32642   0.34181   0.35314

 Mulliken charges:
               1
     1  C   -0.082301
     2  C   -0.002885
     3  N   -0.203237
     4  H    0.090854
     5  H    0.098370
     6  H    0.099200
 Sum of Mulliken charges =   0.00000

 Dipole moment (field-independent basis, Debye):
    X=             -4.1239    Y=              0.0068    Z=              0.0117  Tot=              4.1239
 Quadrupole moment (field-independent basis, Debye-Ang):
   XX=            -20.9655   YY=            -17.7667   ZZ=            -17.7112
   XY=              0.0581   XZ=              0.0606   YZ=             -0.0592

 Normal termination of Gaussian 09 at Thu Aug 27 00:02:57 2020.
