 Gaussian 09, Revision D.01,
 Gaussian 09:  ES64L-G09RevD.01 24-Apr-2013

 --------------------
 #p B2PLYPD3/Def2QZVP
 --------------------

 ------------
 cyanomethane
 ------------
 Symbolic Z-matrix:
 Charge =  0 Multiplicity = 1

                         Standard orientation:
 ---------------------------------------------------------------------
 Center     Atomic      Atomic             Coordinates (Angstroms)
 Number     Number       Type             X           Y           Z
 ---------------------------------------------------------------------
      1          6           0        1.176277   -0.024381    0.004690
      2          6           0       -0.289444    0.042074    0.045426
      3          7           0       -1.438119   -0.006807   -0.022471
      4          1           0        1.717879    0.978472   -0.499537
      5          1           0        1.431046   -0.914504   -0.657238
      6          1           0        1.596910   -0.122478    1.013374
 ---------------------------------------------------------------------

 SCF Done:  E(RB2PLYPD3) =  -132.519701553     A.U. after   12 cycles
 E2(B2PLYPD3) =    -0.1814366653D+00 E(B2PLYPD3) =    -0.13270113821867D+03

 The electronic state is 1-A.
 Alpha  occ. eigenvalues --  -14.84271 -10.69260 -10.66385  -1.04321  -0.87631
 Alpha  occ. eigenvalues --   -0.58908  -0.53709  -0.50723  -0.44877  -0.39228
 Alpha  occ. eigenvalues --   -0.38817
 Alpha virt. eigenvalues --    0.03081   0.06241   0.07806   0.10209   0.11374
 Alpha virt. eigenvalues --    0.11899   0.15065   0.16160   0.16657   0.19941
 Alpha virt. eigenvalues --    0.20086   0.25371   0.30722   0.33384   0.34102

 Mulliken charges:
               1
     1  C   -0.109371
     2  C    0.004856
     3  N   -0.201558
     4  H    0.090724
     5  H    0.109293
     6  H    0.106058
 Sum of Mulliken charges =   0.00000

 Dipole moment (field-independent basis, Debye):
    X=              4.0770    Y=             -0.0324    Z=              0.0502  Tot=              4.0774
 Quadrupole moment (field-independent basis, Debye-Ang):
   XX=            -21.1345   YY=            -17.8804   ZZ=            -17.8302
   XY=              0.0998   XZ=             -0.0485   YZ=              0.0781

 Normal termination of Gaussian 09 at Wed Aug 26 23:53:02 2020.
