 Gaussian 09, Revision D.01,
 Gaussian 09:  ES64L-G09RevD.01 24-Apr-2013

 --------------------
 #p B2PLYPD3/Def2QZVP
 --------------------

 ------------
 cyanomethane
 ------------
 Symbolic Z-matrix:
 Charge =  0 Multiplicity = 1

                         Standard orientation:
 ---------------------------------------------------------------------
 Center     Atomic      Atomic             Coordinates (Angstroms)
 Number     Number       Type             X           Y           Z
 ---------------------------------------------------------------------
      1          6           0       -1.179472    0.005812    0.000582
      2          6           0        0.271628    0.006436    0.000660
      3          7           0        1.431885   -0.006797    0.001503
      4          1           0       -1.480391    0.943211   -0.427719
      5          1           0       -1.554607   -0.115269    1.019952
      6          1           0       -1.541135   -0.853849   -0.610207
 ---------------------------------------------------------------------

 SCF Done:  E(RB2PLYPD3) =  -132.533975699     A.U. after   12 cycles
 E2(B2PLYPD3) =    -0.1810026462D+00 E(B2PLYPD3) =    -0.13271497834477D+03

 The electronic state is 1-A.
 Alpha  occ. eigenvalues --  -14.84232 -10.67249 -10.66283  -1.03835  -0.89380
 Alpha  occ. eigenvalues --   -0.59229  -0.54819  -0.53566  -0.44701  -0.38870
 Alpha  occ. eigenvalues --   -0.38753
 Alpha virt. eigenvalues --    0.03725   0.07599   0.08111   0.10160   0.11322
 Alpha virt. eigenvalues --    0.11510   0.15335   0.15903   0.16227   0.20112
 Alpha virt. eigenvalues --    0.20164   0.25408   0.32646   0.34145   0.34761

 Mulliken charges:
               1
     1  C   -0.093960
     2  C   -0.001614
     3  N   -0.210066
     4  H    0.105007
     5  H    0.100972
     6  H    0.099661
 Sum of Mulliken charges =   0.00000

 Dipole moment (field-independent basis, Debye):
    X=             -4.1219    Y=              0.0085    Z=              0.0003  Tot=              4.1219
 Quadrupole moment (field-independent basis, Debye-Ang):
   XX=            -21.2086   YY=            -17.6752   ZZ=            -17.7490
   XY=              0.0931   XZ=             -0.0487   YZ=             -0.0378

 Normal termination of Gaussian 09 at Thu Aug 27 00:06:55 2020.
