 Gaussian 09, Revision D.01,
 Gaussian 09:  ES64L-G09RevD.01 24-Apr-2013

 --------------------
 #p B2PLYPD3/Def2QZVP
 --------------------

 ------------
 cyanomethane
 ------------
 Symbolic Z-matrix:
 Charge =  0 Multiplicity = 1

                         Standard orientation:
 ---------------------------------------------------------------------
 Center     Atomic      Atomic             Coordinates (Angstroms)
 Number     Number       Type             X           Y           Z
 ---------------------------------------------------------------------
      1          6           0       -1.203744    0.047571    0.017814
      2          6           0        0.272715   -0.051036   -0.007245
      3          7           0        1.454358    0.010553   -0.004961
      4          1           0       -1.443615   -0.074898    1.016774
      5          1           0       -1.709983   -0.902365   -0.566866
      6          1           0       -1.440737    0.924179   -0.478589
 ---------------------------------------------------------------------

 SCF Done:  E(RB2PLYPD3) =  -132.514633891     A.U. after   12 cycles
 E2(B2PLYPD3) =    -0.1834063557D+00 E(B2PLYPD3) =    -0.13269804024624D+03

 The electronic state is 1-A.
 Alpha  occ. eigenvalues --  -14.84953 -10.67768 -10.67110  -1.02930  -0.89240
 Alpha  occ. eigenvalues --   -0.58610  -0.57303  -0.51294  -0.44733  -0.38652
 Alpha  occ. eigenvalues --   -0.38081
 Alpha virt. eigenvalues --    0.03433   0.06421   0.08316   0.10128   0.10708
 Alpha virt. eigenvalues --    0.11380   0.14798   0.15623   0.16198   0.20119
 Alpha virt. eigenvalues --    0.20231   0.25036   0.30410   0.33569   0.35906

 Mulliken charges:
               1
     1  C   -0.098800
     2  C    0.002688
     3  N   -0.219737
     4  H    0.112972
     5  H    0.085752
     6  H    0.117125
 Sum of Mulliken charges =   0.00000

 Dipole moment (field-independent basis, Debye):
    X=             -4.1412    Y=              0.0092    Z=              0.0360  Tot=              4.1413
 Quadrupole moment (field-independent basis, Debye-Ang):
   XX=            -21.3047   YY=            -17.8234   ZZ=            -17.8200
   XY=              0.1252   XZ=              0.0847   YZ=             -0.1970

 Normal termination of Gaussian 09 at Wed Aug 26 22:26:38 2020.
