 Gaussian 09, Revision D.01,
 Gaussian 09:  ES64L-G09RevD.01 24-Apr-2013

 --------------------
 #p B2PLYPD3/Def2QZVP
 --------------------

 ------------
 cyanomethane
 ------------
 Symbolic Z-matrix:
 Charge =  0 Multiplicity = 1

                         Standard orientation:
 ---------------------------------------------------------------------
 Center     Atomic      Atomic             Coordinates (Angstroms)
 Number     Number       Type             X           Y           Z
 ---------------------------------------------------------------------
      1          6           0       -1.178741    0.008447    0.001337
      2          6           0        0.280877    0.008147   -0.007830
      3          7           0        1.439543   -0.007846    0.004749
      4          1           0       -1.527397    1.025635   -0.040587
      5          1           0       -1.589073   -0.497000    0.901261
      6          1           0       -1.573152   -0.573279   -0.854959
 ---------------------------------------------------------------------

 SCF Done:  E(RB2PLYPD3) =  -132.534120083     A.U. after   11 cycles
 E2(B2PLYPD3) =    -0.1809867486D+00 E(B2PLYPD3) =    -0.13271510683135D+03

 The electronic state is 1-A.
 Alpha  occ. eigenvalues --  -14.84366 -10.67426 -10.66452  -1.03964  -0.88979
 Alpha  occ. eigenvalues --   -0.59783  -0.54445  -0.52785  -0.44843  -0.39067
 Alpha  occ. eigenvalues --   -0.38867
 Alpha virt. eigenvalues --    0.03688   0.07428   0.07964   0.10169   0.11268
 Alpha virt. eigenvalues --    0.11590   0.15351   0.16292   0.16513   0.20045
 Alpha virt. eigenvalues --    0.20156   0.25303   0.32561   0.34124   0.34891

 Mulliken charges:
               1
     1  C   -0.083409
     2  C    0.000050
     3  N   -0.207459
     4  H    0.101192
     5  H    0.094722
     6  H    0.094905
 Sum of Mulliken charges =   0.00000

 Dipole moment (field-independent basis, Debye):
    X=             -4.1363    Y=             -0.0001    Z=             -0.0067  Tot=              4.1363
 Quadrupole moment (field-independent basis, Debye-Ang):
   XX=            -20.9699   YY=            -17.6932   ZZ=            -17.9036
   XY=              0.1219   XZ=             -0.0401   YZ=             -0.0005

 Normal termination of Gaussian 09 at Wed Aug 26 22:15:23 2020.
