 Gaussian 09, Revision D.01,
 Gaussian 09:  ES64L-G09RevD.01 24-Apr-2013

 --------------------
 #p B2PLYPD3/Def2QZVP
 --------------------

 ------------
 cyanomethane
 ------------
 Symbolic Z-matrix:
 Charge =  0 Multiplicity = 1

                         Standard orientation:
 ---------------------------------------------------------------------
 Center     Atomic      Atomic             Coordinates (Angstroms)
 Number     Number       Type             X           Y           Z
 ---------------------------------------------------------------------
      1          6           0        1.176492    0.017179    0.022789
      2          6           0       -0.283558   -0.043773   -0.015992
      3          7           0       -1.440583    0.030438    0.006718
      4          1           0        1.688104    0.974330   -0.368077
      5          1           0        1.473118   -0.816735   -0.676664
      6          1           0        1.565253   -0.211099    0.956929
 ---------------------------------------------------------------------

 SCF Done:  E(RB2PLYPD3) =  -132.525679429     A.U. after   12 cycles
 E2(B2PLYPD3) =    -0.1814598302D+00 E(B2PLYPD3) =    -0.13270713925882D+03

 The electronic state is 1-A.
 Alpha  occ. eigenvalues --  -14.84485 -10.67646 -10.66602  -1.04012  -0.88867
 Alpha  occ. eigenvalues --   -0.60258  -0.53966  -0.52228  -0.44939  -0.39158
 Alpha  occ. eigenvalues --   -0.38694
 Alpha virt. eigenvalues --    0.03459   0.06935   0.08082   0.09992   0.11337
 Alpha virt. eigenvalues --    0.11613   0.15213   0.15586   0.17807   0.20067
 Alpha virt. eigenvalues --    0.20331   0.25540   0.32375   0.33166   0.35027

 Mulliken charges:
               1
     1  C   -0.087610
     2  C    0.006660
     3  N   -0.207400
     4  H    0.096030
     5  H    0.090895
     6  H    0.101425
 Sum of Mulliken charges =   0.00000

 Dipole moment (field-independent basis, Debye):
    X=              4.1235    Y=             -0.0795    Z=             -0.0036  Tot=              4.1243
 Quadrupole moment (field-independent basis, Debye-Ang):
   XX=            -20.8880   YY=            -17.8266   ZZ=            -17.8789
   XY=              0.2391   XZ=              0.0601   YZ=             -0.0423

 Normal termination of Gaussian 09 at Wed Aug 26 21:43:42 2020.
