 Gaussian 09, Revision D.01,
 Gaussian 09:  ES64L-G09RevD.01 24-Apr-2013

 --------------------
 #p B2PLYPD3/Def2QZVP
 --------------------

 ------------
 cyanomethane
 ------------
 Symbolic Z-matrix:
 Charge =  0 Multiplicity = 1

                         Standard orientation:
 ---------------------------------------------------------------------
 Center     Atomic      Atomic             Coordinates (Angstroms)
 Number     Number       Type             X           Y           Z
 ---------------------------------------------------------------------
      1          6           0       -1.176552    0.002291   -0.006319
      2          6           0        0.264521   -0.008076    0.028629
      3          7           0        1.430219    0.007973   -0.015678
      4          1           0       -1.478526   -0.273047    0.927777
      5          1           0       -1.489621   -0.719395   -0.698089
      6          1           0       -1.571200    0.971337   -0.253800
 ---------------------------------------------------------------------

 SCF Done:  E(RB2PLYPD3) =  -132.529406752     A.U. after   12 cycles
 E2(B2PLYPD3) =    -0.1810354007D+00 E(B2PLYPD3) =    -0.13271044215228D+03

 The electronic state is 1-A.
 Alpha  occ. eigenvalues --  -14.84392 -10.66401 -10.65709  -1.03641  -0.90665
 Alpha  occ. eigenvalues --   -0.60026  -0.55619  -0.54988  -0.44740  -0.38749
 Alpha  occ. eigenvalues --   -0.38707
 Alpha virt. eigenvalues --    0.03898   0.07841   0.08612   0.10131   0.11256
 Alpha virt. eigenvalues --    0.11316   0.15508   0.15594   0.16686   0.20177
 Alpha virt. eigenvalues --    0.20205   0.25658   0.33032   0.35131   0.35187

 Mulliken charges:
               1
     1  C   -0.075947
     2  C   -0.000681
     3  N   -0.214558
     4  H    0.097152
     5  H    0.097378
     6  H    0.096656
 Sum of Mulliken charges =   0.00000

 Dipole moment (field-independent basis, Debye):
    X=             -4.1453    Y=             -0.0294    Z=              0.0364  Tot=              4.1456
 Quadrupole moment (field-independent basis, Debye-Ang):
   XX=            -21.0178   YY=            -17.6253   ZZ=            -17.7418
   XY=             -0.0671   XZ=              0.0682   YZ=              0.0028

 Normal termination of Gaussian 09 at Wed Aug 26 11:25:25 2020.
