 Gaussian 09, Revision D.01,
 Gaussian 09:  ES64L-G09RevD.01 24-Apr-2013

 --------------------
 #p B2PLYPD3/Def2QZVP
 --------------------

 ------------
 cyanomethane
 ------------
 Symbolic Z-matrix:
 Charge =  0 Multiplicity = 1

                         Standard orientation:
 ---------------------------------------------------------------------
 Center     Atomic      Atomic             Coordinates (Angstroms)
 Number     Number       Type             X           Y           Z
 ---------------------------------------------------------------------
      1          6           0       -1.194301   -0.019212    0.015586
      2          6           0        0.289718    0.039081   -0.000504
      3          7           0        1.436395   -0.014210   -0.003364
      4          1           0       -1.498084   -0.306004    0.943831
      5          1           0       -1.522429   -0.725650   -0.755775
      6          1           0       -1.606752    1.011911   -0.254995
 ---------------------------------------------------------------------

 SCF Done:  E(RB2PLYPD3) =  -132.530289784     A.U. after   12 cycles
 E2(B2PLYPD3) =    -0.1798991842D+00 E(B2PLYPD3) =    -0.13271018896861D+03

 The electronic state is 1-A.
 Alpha  occ. eigenvalues --  -14.83988 -10.67282 -10.66098  -1.04302  -0.88954
 Alpha  occ. eigenvalues --   -0.59022  -0.55214  -0.52802  -0.44675  -0.39461
 Alpha  occ. eigenvalues --   -0.39160
 Alpha virt. eigenvalues --    0.03710   0.07779   0.08675   0.10205   0.11236
 Alpha virt. eigenvalues --    0.11527   0.15195   0.16097   0.16373   0.20010
 Alpha virt. eigenvalues --    0.20061   0.24926   0.32142   0.33995   0.35308

 Mulliken charges:
               1
     1  C   -0.092627
     2  C   -0.004221
     3  N   -0.202708
     4  H    0.106196
     5  H    0.099884
     6  H    0.093476
 Sum of Mulliken charges =   0.00000

 Dipole moment (field-independent basis, Debye):
    X=             -4.1139    Y=              0.0024    Z=              0.0079  Tot=              4.1139
 Quadrupole moment (field-independent basis, Debye-Ang):
   XX=            -21.1052   YY=            -17.7266   ZZ=            -17.6980
   XY=              0.0437   XZ=              0.0497   YZ=             -0.0200

 Normal termination of Gaussian 09 at Wed Aug 26 13:25:03 2020.
