 Gaussian 09, Revision D.01,
 Gaussian 09:  ES64L-G09RevD.01 24-Apr-2013

 --------------------
 #p B2PLYPD3/Def2QZVP
 --------------------

 ------------
 cyanomethane
 ------------
 Symbolic Z-matrix:
 Charge =  0 Multiplicity = 1

                         Standard orientation:
 ---------------------------------------------------------------------
 Center     Atomic      Atomic             Coordinates (Angstroms)
 Number     Number       Type             X           Y           Z
 ---------------------------------------------------------------------
      1          6           0        1.170587   -0.002725   -0.002250
      2          6           0       -0.272684    0.019507    0.014581
      3          7           0       -1.439608   -0.008580   -0.005263
      4          1           0        1.581332   -0.473317    0.895883
      5          1           0        1.579810    1.009965   -0.073486
      6          1           0        1.528694   -0.577281   -0.859539
 ---------------------------------------------------------------------

 SCF Done:  E(RB2PLYPD3) =  -132.533985793     A.U. after   11 cycles
 E2(B2PLYPD3) =    -0.1816797827D+00 E(B2PLYPD3) =    -0.13271566557587D+03

 The electronic state is 1-A.
 Alpha  occ. eigenvalues --  -14.84607 -10.67143 -10.66654  -1.03677  -0.89358
 Alpha  occ. eigenvalues --   -0.60323  -0.53838  -0.53640  -0.44917  -0.38740
 Alpha  occ. eigenvalues --   -0.38697
 Alpha virt. eigenvalues --    0.03723   0.07434   0.07516   0.10124   0.11356
 Alpha virt. eigenvalues --    0.11472   0.15488   0.16349   0.16456   0.20127
 Alpha virt. eigenvalues --    0.20168   0.25620   0.32679   0.34511   0.34635

 Mulliken charges:
               1
     1  C   -0.077542
     2  C    0.002356
     3  N   -0.211660
     4  H    0.094971
     5  H    0.095274
     6  H    0.096600
 Sum of Mulliken charges =   0.00000

 Dipole moment (field-independent basis, Debye):
    X=              4.1478    Y=              0.0033    Z=              0.0022  Tot=              4.1478
 Quadrupole moment (field-independent basis, Debye-Ang):
   XX=            -20.9133   YY=            -17.7984   ZZ=            -17.8442
   XY=             -0.0416   XZ=             -0.0019   YZ=              0.0008

 Normal termination of Gaussian 09 at Wed Aug 26 10:43:06 2020.
