 Gaussian 09, Revision D.01,
 Gaussian 09:  ES64L-G09RevD.01 24-Apr-2013

 --------------------
 #p B2PLYPD3/Def2QZVP
 --------------------

 ------------
 cyanomethane
 ------------
 Symbolic Z-matrix:
 Charge =  0 Multiplicity = 1

                         Standard orientation:
 ---------------------------------------------------------------------
 Center     Atomic      Atomic             Coordinates (Angstroms)
 Number     Number       Type             X           Y           Z
 ---------------------------------------------------------------------
      1          6           0       -1.195177   -0.019219    0.035768
      2          6           0        0.265178    0.041035   -0.057458
      3          7           0        1.448761   -0.022051    0.019090
      4          1           0       -1.617804   -0.672795   -0.777520
      5          1           0       -1.503356    1.031894   -0.177035
      6          1           0       -1.440170   -0.335636    0.951066
 ---------------------------------------------------------------------

 SCF Done:  E(RB2PLYPD3) =  -132.520985082     A.U. after   12 cycles
 E2(B2PLYPD3) =    -0.1835177944D+00 E(B2PLYPD3) =    -0.13270450287611D+03

 The electronic state is 1-A.
 Alpha  occ. eigenvalues --  -14.85051 -10.67160 -10.67072  -1.02795  -0.89646
 Alpha  occ. eigenvalues --   -0.59629  -0.55820  -0.53052  -0.44785  -0.38425
 Alpha  occ. eigenvalues --   -0.38065
 Alpha virt. eigenvalues --    0.03662   0.07124   0.07568   0.09983   0.11064
 Alpha virt. eigenvalues --    0.11115   0.15192   0.15328   0.16496   0.20152
 Alpha virt. eigenvalues --    0.20274   0.25553   0.32004   0.33421   0.35448

 Mulliken charges:
               1
     1  C   -0.093995
     2  C    0.005136
     3  N   -0.222082
     4  H    0.098335
     5  H    0.099203
     6  H    0.113403
 Sum of Mulliken charges =   0.00000

 Dipole moment (field-independent basis, Debye):
    X=             -4.1421    Y=              0.0318    Z=             -0.0185  Tot=              4.1423
 Quadrupole moment (field-independent basis, Debye-Ang):
   XX=            -21.2459   YY=            -17.8216   ZZ=            -17.7604
   XY=              0.1391   XZ=              0.0428   YZ=             -0.0598

 Normal termination of Gaussian 09 at Wed Aug 26 23:08:44 2020.
