 Gaussian 09, Revision D.01,
 Gaussian 09:  ES64L-G09RevD.01 24-Apr-2013

 --------------------
 #p B2PLYPD3/Def2QZVP
 --------------------

 ------------
 cyanomethane
 ------------
 Symbolic Z-matrix:
 Charge =  0 Multiplicity = 1

                         Standard orientation:
 ---------------------------------------------------------------------
 Center     Atomic      Atomic             Coordinates (Angstroms)
 Number     Number       Type             X           Y           Z
 ---------------------------------------------------------------------
      1          6           0        1.179688    0.011145   -0.003364
      2          6           0       -0.282419   -0.019806   -0.009035
      3          7           0       -1.438796    0.008444    0.003782
      4          1           0        1.554516    1.044783   -0.101736
      5          1           0        1.583466   -0.629546   -0.813021
      6          1           0        1.549979   -0.422377    0.962680
 ---------------------------------------------------------------------

 SCF Done:  E(RB2PLYPD3) =  -132.533854541     A.U. after   12 cycles
 E2(B2PLYPD3) =    -0.1809773440D+00 E(B2PLYPD3) =    -0.13271483188475D+03

 The electronic state is 1-A.
 Alpha  occ. eigenvalues --  -14.84301 -10.67854 -10.66395  -1.04032  -0.88629
 Alpha  occ. eigenvalues --   -0.59450  -0.53805  -0.52912  -0.44820  -0.39072
 Alpha  occ. eigenvalues --   -0.38906
 Alpha virt. eigenvalues --    0.03620   0.07557   0.07659   0.10165   0.11382
 Alpha virt. eigenvalues --    0.11558   0.15307   0.16064   0.16629   0.20058
 Alpha virt. eigenvalues --    0.20112   0.25286   0.32454   0.33925   0.34633

 Mulliken charges:
               1
     1  C   -0.090930
     2  C    0.000334
     3  N   -0.206168
     4  H    0.102199
     5  H    0.097978
     6  H    0.096586
 Sum of Mulliken charges =   0.00000

 Dipole moment (field-independent basis, Debye):
    X=              4.1248    Y=             -0.0207    Z=              0.0016  Tot=              4.1249
 Quadrupole moment (field-independent basis, Debye-Ang):
   XX=            -21.0500   YY=            -17.7175   ZZ=            -17.8706
   XY=              0.0073   XZ=              0.0167   YZ=              0.0067

 Normal termination of Gaussian 09 at Wed Aug 26 23:59:55 2020.
