 Gaussian 09, Revision D.01,
 Gaussian 09:  ES64L-G09RevD.01 24-Apr-2013

 --------------------
 #p B2PLYPD3/Def2QZVP
 --------------------

 ------------
 cyanomethane
 ------------
 Symbolic Z-matrix:
 Charge =  0 Multiplicity = 1

                         Standard orientation:
 ---------------------------------------------------------------------
 Center     Atomic      Atomic             Coordinates (Angstroms)
 Number     Number       Type             X           Y           Z
 ---------------------------------------------------------------------
      1          6           0       -1.188134    0.006307   -0.040730
      2          6           0        0.277484   -0.022035    0.039878
      3          7           0        1.451275    0.008979   -0.018504
      4          1           0       -1.541376   -0.166547    0.994744
      5          1           0       -1.603945   -0.749373   -0.582587
      6          1           0       -1.549701    0.947433   -0.277514
 ---------------------------------------------------------------------

 SCF Done:  E(RB2PLYPD3) =  -132.525134065     A.U. after   12 cycles
 E2(B2PLYPD3) =    -0.1821470558D+00 E(B2PLYPD3) =    -0.13270728112116D+03

 The electronic state is 1-A.
 Alpha  occ. eigenvalues --  -14.84899 -10.67047 -10.66219  -1.03338  -0.89949
 Alpha  occ. eigenvalues --   -0.60794  -0.56140  -0.52705  -0.44955  -0.38979
 Alpha  occ. eigenvalues --   -0.38406
 Alpha virt. eigenvalues --    0.03816   0.07596   0.07855   0.10056   0.10928
 Alpha virt. eigenvalues --    0.11486   0.15385   0.15500   0.17679   0.20207
 Alpha virt. eigenvalues --    0.20236   0.25365   0.32405   0.33819   0.36263

 Mulliken charges:
               1
     1  C   -0.064067
     2  C    0.007512
     3  N   -0.216007
     4  H    0.080248
     5  H    0.096068
     6  H    0.096246
 Sum of Mulliken charges =   0.00000

 Dipole moment (field-independent basis, Debye):
    X=             -4.1795    Y=             -0.0136    Z=              0.0633  Tot=              4.1800
 Quadrupole moment (field-independent basis, Debye-Ang):
   XX=            -20.7566   YY=            -17.7008   ZZ=            -17.9982
   XY=             -0.0046   XZ=              0.0213   YZ=              0.0542

 Normal termination of Gaussian 09 at Wed Aug 26 19:15:29 2020.
