 Gaussian 09, Revision D.01,
 Gaussian 09:  ES64L-G09RevD.01 24-Apr-2013

 --------------------
 #p B2PLYPD3/Def2QZVP
 --------------------

 ------------
 cyanomethane
 ------------
 Symbolic Z-matrix:
 Charge =  0 Multiplicity = 1

                         Standard orientation:
 ---------------------------------------------------------------------
 Center     Atomic      Atomic             Coordinates (Angstroms)
 Number     Number       Type             X           Y           Z
 ---------------------------------------------------------------------
      1          6           0        1.177605   -0.004300    0.003599
      2          6           0       -0.284873    0.003458    0.016642
      3          7           0       -1.437631    0.001333   -0.007325
      4          1           0        1.600822    0.999356   -0.199319
      5          1           0        1.525085   -0.656429   -0.788574
      6          1           0        1.581116   -0.347205    0.917719
 ---------------------------------------------------------------------

 SCF Done:  E(RB2PLYPD3) =  -132.534813116     A.U. after   11 cycles
 E2(B2PLYPD3) =    -0.1802820473D+00 E(B2PLYPD3) =    -0.13271509516315D+03

 The electronic state is 1-A.
 Alpha  occ. eigenvalues --  -14.84236 -10.66936 -10.66325  -1.04217  -0.89229
 Alpha  occ. eigenvalues --   -0.60167  -0.54262  -0.53294  -0.44858  -0.39254
 Alpha  occ. eigenvalues --   -0.39115
 Alpha virt. eigenvalues --    0.03767   0.07745   0.08183   0.10202   0.11365
 Alpha virt. eigenvalues --    0.11550   0.15418   0.16392   0.16711   0.20049
 Alpha virt. eigenvalues --    0.20098   0.25269   0.32698   0.34498   0.35097

 Mulliken charges:
               1
     1  C   -0.074978
     2  C   -0.000238
     3  N   -0.204826
     4  H    0.091159
     5  H    0.093984
     6  H    0.094899
 Sum of Mulliken charges =   0.00000

 Dipole moment (field-independent basis, Debye):
    X=              4.1382    Y=             -0.0134    Z=              0.0072  Tot=              4.1382
 Quadrupole moment (field-independent basis, Debye-Ang):
   XX=            -20.8345   YY=            -17.7951   ZZ=            -17.7836
   XY=              0.0287   XZ=             -0.0193   YZ=             -0.0072

 Normal termination of Gaussian 09 at Wed Aug 26 13:50:28 2020.
