 Gaussian 09, Revision D.01,
 Gaussian 09:  ES64L-G09RevD.01 24-Apr-2013

 --------------------
 #p B2PLYPD3/Def2QZVP
 --------------------

 ------------
 cyanomethane
 ------------
 Symbolic Z-matrix:
 Charge =  0 Multiplicity = 1

                         Standard orientation:
 ---------------------------------------------------------------------
 Center     Atomic      Atomic             Coordinates (Angstroms)
 Number     Number       Type             X           Y           Z
 ---------------------------------------------------------------------
      1          6           0       -1.185506    0.007515    0.006113
      2          6           0        0.278812   -0.011258   -0.001331
      3          7           0        1.437225    0.001626   -0.002312
      4          1           0       -1.511911   -0.085933    1.014940
      5          1           0       -1.597188   -0.845619   -0.590175
      6          1           0       -1.511310    0.942631   -0.437272
 ---------------------------------------------------------------------

 SCF Done:  E(RB2PLYPD3) =  -132.534218254     A.U. after   12 cycles
 E2(B2PLYPD3) =    -0.1807957419D+00 E(B2PLYPD3) =    -0.13271501399616D+03

 The electronic state is 1-A.
 Alpha  occ. eigenvalues --  -14.84255 -10.67241 -10.66344  -1.03908  -0.89186
 Alpha  occ. eigenvalues --   -0.59283  -0.54756  -0.53405  -0.44731  -0.39022
 Alpha  occ. eigenvalues --   -0.38902
 Alpha virt. eigenvalues --    0.03738   0.07672   0.08212   0.10197   0.11290
 Alpha virt. eigenvalues --    0.11445   0.15283   0.16065   0.16299   0.20097
 Alpha virt. eigenvalues --    0.20123   0.25193   0.32480   0.34328   0.34901

 Mulliken charges:
               1
     1  C   -0.089517
     2  C   -0.002106
     3  N   -0.208415
     4  H    0.102247
     5  H    0.095923
     6  H    0.101868
 Sum of Mulliken charges =   0.00000

 Dipole moment (field-independent basis, Debye):
    X=             -4.1316    Y=              0.0018    Z=              0.0108  Tot=              4.1316
 Quadrupole moment (field-independent basis, Debye-Ang):
   XX=            -21.1076   YY=            -17.7383   ZZ=            -17.7413
   XY=              0.0470   XZ=              0.0383   YZ=             -0.0392

 Normal termination of Gaussian 09 at Wed Aug 26 23:13:43 2020.
