 Gaussian 09, Revision D.01,
 Gaussian 09:  ES64L-G09RevD.01 24-Apr-2013

 --------------------
 #p B2PLYPD3/Def2QZVP
 --------------------

 ------------
 cyanomethane
 ------------
 Symbolic Z-matrix:
 Charge =  0 Multiplicity = 1

                         Standard orientation:
 ---------------------------------------------------------------------
 Center     Atomic      Atomic             Coordinates (Angstroms)
 Number     Number       Type             X           Y           Z
 ---------------------------------------------------------------------
      1          6           0        1.174294    0.046419    0.001308
      2          6           0       -0.302328   -0.074459    0.007287
      3          7           0       -1.427111    0.036486   -0.008938
      4          1           0        1.619315    1.081261   -0.134842
      5          1           0        1.624278   -0.719657   -0.798933
      6          1           0        1.514388   -0.448769    0.944772
 ---------------------------------------------------------------------

 SCF Done:  E(RB2PLYPD3) =  -132.521328917     A.U. after   12 cycles
 E2(B2PLYPD3) =    -0.1797229707D+00 E(B2PLYPD3) =    -0.13270105188756D+03

 The electronic state is 1-A.
 Alpha  occ. eigenvalues --  -14.83687 -10.69017 -10.65778  -1.05178  -0.87384
 Alpha  occ. eigenvalues --   -0.58778  -0.53513  -0.50834  -0.44828  -0.39874
 Alpha  occ. eigenvalues --   -0.39261
 Alpha virt. eigenvalues --    0.03202   0.06975   0.08049   0.09992   0.11550
 Alpha virt. eigenvalues --    0.12127   0.15258   0.15354   0.17911   0.19999
 Alpha virt. eigenvalues --    0.20073   0.25698   0.31679   0.33270   0.34256

 Mulliken charges:
               1
     1  C   -0.103927
     2  C    0.001308
     3  N   -0.190002
     4  H    0.110359
     5  H    0.087134
     6  H    0.095128
 Sum of Mulliken charges =   0.00000

 Dipole moment (field-independent basis, Debye):
    X=              4.0519    Y=             -0.0894    Z=              0.0528  Tot=              4.0532
 Quadrupole moment (field-independent basis, Debye-Ang):
   XX=            -21.0367   YY=            -17.4846   ZZ=            -18.1129
   XY=              0.1598   XZ=             -0.0501   YZ=             -0.0842

 Normal termination of Gaussian 09 at Wed Aug 26 18:32:53 2020.
