 Gaussian 09, Revision D.01,
 Gaussian 09:  ES64L-G09RevD.01 24-Apr-2013

 --------------------
 #p B2PLYPD3/Def2QZVP
 --------------------

 ------------
 cyanomethane
 ------------
 Symbolic Z-matrix:
 Charge =  0 Multiplicity = 1

                         Standard orientation:
 ---------------------------------------------------------------------
 Center     Atomic      Atomic             Coordinates (Angstroms)
 Number     Number       Type             X           Y           Z
 ---------------------------------------------------------------------
      1          6           0        1.182585   -0.003385   -0.009641
      2          6           0       -0.280185   -0.003122   -0.005957
      3          7           0       -1.435074    0.000232    0.008579
      4          1           0        1.608882   -0.299391    0.979894
      5          1           0        1.507512    1.024765   -0.209025
      6          1           0        1.514724   -0.687958   -0.737330
 ---------------------------------------------------------------------

 SCF Done:  E(RB2PLYPD3) =  -132.533753067     A.U. after   12 cycles
 E2(B2PLYPD3) =    -0.1805087917D+00 E(B2PLYPD3) =    -0.13271426185836D+03

 The electronic state is 1-A.
 Alpha  occ. eigenvalues --  -14.84173 -10.67178 -10.66252  -1.04064  -0.89213
 Alpha  occ. eigenvalues --   -0.59444  -0.55006  -0.53025  -0.44742  -0.39151
 Alpha  occ. eigenvalues --   -0.38939
 Alpha virt. eigenvalues --    0.03732   0.07606   0.08357   0.10199   0.11268
 Alpha virt. eigenvalues --    0.11574   0.15313   0.16048   0.16487   0.20052
 Alpha virt. eigenvalues --    0.20140   0.25225   0.32584   0.34140   0.35075

 Mulliken charges:
               1
     1  C   -0.087701
     2  C   -0.002195
     3  N   -0.206589
     4  H    0.093862
     5  H    0.099810
     6  H    0.102813
 Sum of Mulliken charges =   0.00000

 Dipole moment (field-independent basis, Debye):
    X=              4.1273    Y=             -0.0009    Z=             -0.0112  Tot=              4.1273
 Quadrupole moment (field-independent basis, Debye-Ang):
   XX=            -21.0627   YY=            -17.6702   ZZ=            -17.8084
   XY=             -0.0325   XZ=              0.1321   YZ=              0.0571

 Normal termination of Gaussian 09 at Thu Aug 27 00:04:10 2020.
