 Gaussian 09, Revision D.01,
 Gaussian 09:  ES64L-G09RevD.01 24-Apr-2013

 --------------------
 #p B2PLYPD3/Def2QZVP
 --------------------

 ------------
 cyanomethane
 ------------
 Symbolic Z-matrix:
 Charge =  0 Multiplicity = 1

                         Standard orientation:
 ---------------------------------------------------------------------
 Center     Atomic      Atomic             Coordinates (Angstroms)
 Number     Number       Type             X           Y           Z
 ---------------------------------------------------------------------
      1          6           0        1.203588   -0.028303    0.035714
      2          6           0       -0.266502    0.070135    0.009543
      3          7           0       -1.446835   -0.023814   -0.007913
      4          1           0        1.486652   -0.171340    0.963783
      5          1           0        1.616945    0.966728   -0.472323
      6          1           0        1.401731   -0.879679   -0.707614
 ---------------------------------------------------------------------

 SCF Done:  E(RB2PLYPD3) =  -132.511140618     A.U. after   12 cycles
 E2(B2PLYPD3) =    -0.1836160625D+00 E(B2PLYPD3) =    -0.13269475668078D+03

 The electronic state is 1-A.
 Alpha  occ. eigenvalues --  -14.84853 -10.67985 -10.67021  -1.02843  -0.89210
 Alpha  occ. eigenvalues --   -0.59429  -0.55666  -0.51939  -0.44642  -0.38518
 Alpha  occ. eigenvalues --   -0.37901
 Alpha virt. eigenvalues --    0.03359   0.06596   0.08201   0.09978   0.10780
 Alpha virt. eigenvalues --    0.11308   0.14811   0.15415   0.16006   0.20141
 Alpha virt. eigenvalues --    0.20233   0.25221   0.31029   0.32700   0.34657

 Mulliken charges:
               1
     1  C   -0.113604
     2  C    0.005764
     3  N   -0.221399
     4  H    0.119561
     5  H    0.098352
     6  H    0.111326
 Sum of Mulliken charges =   0.00000

 Dipole moment (field-independent basis, Debye):
    X=              4.1192    Y=              0.0035    Z=             -0.0091  Tot=              4.1192
 Quadrupole moment (field-independent basis, Debye-Ang):
   XX=            -21.5319   YY=            -17.8715   ZZ=            -17.6481
   XY=              0.0170   XZ=             -0.0615   YZ=             -0.0083

 Normal termination of Gaussian 09 at Wed Aug 26 22:23:19 2020.
