 Gaussian 09, Revision D.01,
 Gaussian 09:  ES64L-G09RevD.01 24-Apr-2013

 --------------------
 #p B2PLYPD3/Def2QZVP
 --------------------

 ------------
 cyanomethane
 ------------
 Symbolic Z-matrix:
 Charge =  0 Multiplicity = 1

                         Standard orientation:
 ---------------------------------------------------------------------
 Center     Atomic      Atomic             Coordinates (Angstroms)
 Number     Number       Type             X           Y           Z
 ---------------------------------------------------------------------
      1          6           0        1.177337    0.008053   -0.007863
      2          6           0       -0.278452   -0.015070    0.000010
      3          7           0       -1.426355    0.003992    0.003356
      4          1           0        1.569130   -0.103536    1.022349
      5          1           0        1.478553    0.945464   -0.406361
      6          1           0        1.543493   -0.827771   -0.592358
 ---------------------------------------------------------------------

 SCF Done:  E(RB2PLYPD3) =  -132.535310112     A.U. after   11 cycles
 E2(B2PLYPD3) =    -0.1798234571D+00 E(B2PLYPD3) =    -0.13271513356889D+03

 The electronic state is 1-A.
 Alpha  occ. eigenvalues --  -14.83913 -10.66950 -10.65948  -1.04328  -0.89417
 Alpha  occ. eigenvalues --   -0.59327  -0.55016  -0.53490  -0.44679  -0.39248
 Alpha  occ. eigenvalues --   -0.39089
 Alpha virt. eigenvalues --    0.03795   0.07934   0.08390   0.10204   0.11431
 Alpha virt. eigenvalues --    0.11623   0.15383   0.16176   0.16277   0.20046
 Alpha virt. eigenvalues --    0.20105   0.25369   0.32798   0.34322   0.35082

 Mulliken charges:
               1
     1  C   -0.089118
     2  C   -0.004158
     3  N   -0.203796
     4  H    0.095061
     5  H    0.103155
     6  H    0.098856
 Sum of Mulliken charges =   0.00000

 Dipole moment (field-independent basis, Debye):
    X=              4.1099    Y=             -0.0057    Z=             -0.0027  Tot=              4.1099
 Quadrupole moment (field-independent basis, Debye-Ang):
   XX=            -21.1071   YY=            -17.6169   ZZ=            -17.7501
   XY=             -0.0346   XZ=              0.0724   YZ=             -0.0136

 Normal termination of Gaussian 09 at Wed Aug 26 23:26:08 2020.
