 Gaussian 09, Revision D.01,
 Gaussian 09:  ES64L-G09RevD.01 24-Apr-2013

 --------------------
 #p B2PLYPD3/Def2QZVP
 --------------------

 ------------
 cyanomethane
 ------------
 Symbolic Z-matrix:
 Charge =  0 Multiplicity = 1

                         Standard orientation:
 ---------------------------------------------------------------------
 Center     Atomic      Atomic             Coordinates (Angstroms)
 Number     Number       Type             X           Y           Z
 ---------------------------------------------------------------------
      1          6           0        1.169554    0.002379   -0.009351
      2          6           0       -0.274874   -0.022850    0.014749
      3          7           0       -1.426692    0.009731   -0.002079
      4          1           0        1.603845    0.004662    1.002370
      5          1           0        1.485789    0.950493   -0.497594
      6          1           0        1.529136   -0.900446   -0.522612
 ---------------------------------------------------------------------

 SCF Done:  E(RB2PLYPD3) =  -132.534229323     A.U. after   11 cycles
 E2(B2PLYPD3) =    -0.1804868762D+00 E(B2PLYPD3) =    -0.13271471619965D+03

 The electronic state is 1-A.
 Alpha  occ. eigenvalues --  -14.84065 -10.67437 -10.66086  -1.04203  -0.89156
 Alpha  occ. eigenvalues --   -0.59569  -0.54429  -0.53051  -0.44746  -0.39050
 Alpha  occ. eigenvalues --   -0.38900
 Alpha virt. eigenvalues --    0.03677   0.07604   0.07893   0.10171   0.11480
 Alpha virt. eigenvalues --    0.11711   0.15337   0.16237   0.16327   0.20040
 Alpha virt. eigenvalues --    0.20134   0.25601   0.32782   0.34054   0.34567

 Mulliken charges:
               1
     1  C   -0.092260
     2  C   -0.000631
     3  N   -0.205558
     4  H    0.094726
     5  H    0.102200
     6  H    0.101523
 Sum of Mulliken charges =   0.00000

 Dipole moment (field-independent basis, Debye):
    X=              4.1081    Y=             -0.0103    Z=              0.0228  Tot=              4.1082
 Quadrupole moment (field-independent basis, Debye-Ang):
   XX=            -21.1143   YY=            -17.5724   ZZ=            -17.8822
   XY=              0.0260   XZ=              0.1203   YZ=              0.0125

 Normal termination of Gaussian 09 at Wed Aug 26 11:56:34 2020.
