 Gaussian 09, Revision D.01,
 Gaussian 09:  ES64L-G09RevD.01 24-Apr-2013

 --------------------
 #p B2PLYPD3/Def2QZVP
 --------------------

 ------------
 cyanomethane
 ------------
 Symbolic Z-matrix:
 Charge =  0 Multiplicity = 1

                         Standard orientation:
 ---------------------------------------------------------------------
 Center     Atomic      Atomic             Coordinates (Angstroms)
 Number     Number       Type             X           Y           Z
 ---------------------------------------------------------------------
      1          6           0        1.169800   -0.000897   -0.003714
      2          6           0       -0.275171    0.022252    0.007189
      3          7           0       -1.431028   -0.012562   -0.006269
      4          1           0        1.542798    1.004065   -0.141396
      5          1           0        1.589997   -0.655734   -0.764690
      6          1           0        1.516626   -0.388531    0.929124
 ---------------------------------------------------------------------

 SCF Done:  E(RB2PLYPD3) =  -132.534720338     A.U. after   12 cycles
 E2(B2PLYPD3) =    -0.1805339209D+00 E(B2PLYPD3) =    -0.13271525425923D+03

 The electronic state is 1-A.
 Alpha  occ. eigenvalues --  -14.84246 -10.66667 -10.66266  -1.04083  -0.89665
 Alpha  occ. eigenvalues --   -0.60253  -0.54577  -0.53634  -0.44830  -0.39042
 Alpha  occ. eigenvalues --   -0.38934
 Alpha virt. eigenvalues --    0.03803   0.07680   0.08145   0.10136   0.11370
 Alpha virt. eigenvalues --    0.11602   0.15533   0.16063   0.16783   0.20062
 Alpha virt. eigenvalues --    0.20167   0.25604   0.32936   0.34667   0.34924

 Mulliken charges:
               1
     1  C   -0.076435
     2  C   -0.000126
     3  N   -0.207465
     4  H    0.096318
     5  H    0.093401
     6  H    0.094307
 Sum of Mulliken charges =   0.00000

 Dipole moment (field-independent basis, Debye):
    X=              4.1317    Y=              0.0019    Z=              0.0248  Tot=              4.1317
 Quadrupole moment (field-independent basis, Debye-Ang):
   XX=            -20.9158   YY=            -17.6582   ZZ=            -17.8449
   XY=             -0.1259   XZ=             -0.0469   YZ=             -0.0178

 Normal termination of Gaussian 09 at Wed Aug 26 12:54:24 2020.
