 Gaussian 09, Revision D.01,
 Gaussian 09:  ES64L-G09RevD.01 24-Apr-2013

 --------------------
 #p B2PLYPD3/Def2QZVP
 --------------------

 ------------
 cyanomethane
 ------------
 Symbolic Z-matrix:
 Charge =  0 Multiplicity = 1

                         Standard orientation:
 ---------------------------------------------------------------------
 Center     Atomic      Atomic             Coordinates (Angstroms)
 Number     Number       Type             X           Y           Z
 ---------------------------------------------------------------------
      1          6           0        1.171238   -0.000872   -0.002086
      2          6           0       -0.275312    0.024056    0.011770
      3          7           0       -1.438426   -0.012367   -0.005300
      4          1           0        1.572432   -0.308160    0.956719
      5          1           0        1.564681    0.965494   -0.239591
      6          1           0        1.556311   -0.709875   -0.738127
 ---------------------------------------------------------------------

 SCF Done:  E(RB2PLYPD3) =  -132.534365972     A.U. after   11 cycles
 E2(B2PLYPD3) =    -0.1812231496D+00 E(B2PLYPD3) =    -0.13271558912158D+03

 The electronic state is 1-A.
 Alpha  occ. eigenvalues --  -14.84523 -10.66797 -10.66564  -1.03823  -0.89535
 Alpha  occ. eigenvalues --   -0.60487  -0.54265  -0.53561  -0.44916  -0.38900
 Alpha  occ. eigenvalues --   -0.38811
 Alpha virt. eigenvalues --    0.03765   0.07514   0.07858   0.10133   0.11317
 Alpha virt. eigenvalues --    0.11507   0.15522   0.16357   0.16594   0.20097
 Alpha virt. eigenvalues --    0.20166   0.25580   0.32816   0.34590   0.34938

 Mulliken charges:
               1
     1  C   -0.072032
     2  C    0.001836
     3  N   -0.210177
     4  H    0.092825
     5  H    0.094343
     6  H    0.093206
 Sum of Mulliken charges =   0.00000

 Dipole moment (field-independent basis, Debye):
    X=              4.1480    Y=              0.0128    Z=              0.0066  Tot=              4.1480
 Quadrupole moment (field-independent basis, Debye-Ang):
   XX=            -20.8428   YY=            -17.7848   ZZ=            -17.8330
   XY=             -0.0755   XZ=             -0.0194   YZ=             -0.0162

 Normal termination of Gaussian 09 at Wed Aug 26 09:59:01 2020.
