 Gaussian 09, Revision D.01,
 Gaussian 09:  ES64L-G09RevD.01 24-Apr-2013

 --------------------
 #p B2PLYPD3/Def2QZVP
 --------------------

 ------------
 cyanomethane
 ------------
 Symbolic Z-matrix:
 Charge =  0 Multiplicity = 1

                         Standard orientation:
 ---------------------------------------------------------------------
 Center     Atomic      Atomic             Coordinates (Angstroms)
 Number     Number       Type             X           Y           Z
 ---------------------------------------------------------------------
      1          6           0       -1.171613    0.007239   -0.002844
      2          6           0        0.271731    0.003989    0.022834
      3          7           0        1.435629   -0.005305   -0.010770
      4          1           0       -1.517235    1.033286   -0.045546
      5          1           0       -1.575878   -0.505060    0.876244
      6          1           0       -1.556997   -0.558462   -0.875251
 ---------------------------------------------------------------------

 SCF Done:  E(RB2PLYPD3) =  -132.533835567     A.U. after   11 cycles
 E2(B2PLYPD3) =    -0.1814284245D+00 E(B2PLYPD3) =    -0.13271526399103D+03

 The electronic state is 1-A.
 Alpha  occ. eigenvalues --  -14.84460 -10.67209 -10.66494  -1.03760  -0.89361
 Alpha  occ. eigenvalues --   -0.59966  -0.54553  -0.53166  -0.44845  -0.38829
 Alpha  occ. eigenvalues --   -0.38658
 Alpha virt. eigenvalues --    0.03705   0.07372   0.07789   0.10129   0.11293
 Alpha virt. eigenvalues --    0.11573   0.15440   0.16202   0.16395   0.20095
 Alpha virt. eigenvalues --    0.20185   0.25606   0.32719   0.34176   0.34796

 Mulliken charges:
               1
     1  C   -0.083448
     2  C    0.001013
     3  N   -0.210838
     4  H    0.101450
     5  H    0.095893
     6  H    0.095930
 Sum of Mulliken charges =   0.00000

 Dipole moment (field-independent basis, Debye):
    X=             -4.1360    Y=             -0.0057    Z=              0.0131  Tot=              4.1361
 Quadrupole moment (field-independent basis, Debye-Ang):
   XX=            -21.0193   YY=            -17.6792   ZZ=            -17.8841
   XY=              0.1080   XZ=              0.0471   YZ=             -0.0136

 Normal termination of Gaussian 09 at Thu Aug 27 00:02:52 2020.
