 Gaussian 09, Revision D.01,
 Gaussian 09:  ES64L-G09RevD.01 24-Apr-2013

 --------------------
 #p B2PLYPD3/Def2QZVP
 --------------------

 ------------
 cyanomethane
 ------------
 Symbolic Z-matrix:
 Charge =  0 Multiplicity = 1

                         Standard orientation:
 ---------------------------------------------------------------------
 Center     Atomic      Atomic             Coordinates (Angstroms)
 Number     Number       Type             X           Y           Z
 ---------------------------------------------------------------------
      1          6           0       -1.189363    0.003035   -0.009102
      2          6           0        0.289759   -0.026100   -0.038836
      3          7           0        1.436029    0.011953    0.011182
      4          1           0       -1.586536    1.006179   -0.348036
      5          1           0       -1.418822   -0.112606    1.116573
      6          1           0       -1.649226   -0.838851   -0.559179
 ---------------------------------------------------------------------

 SCF Done:  E(RB2PLYPD3) =  -132.529653931     A.U. after   12 cycles
 E2(B2PLYPD3) =    -0.1805621087D+00 E(B2PLYPD3) =    -0.13271021603929D+03

 The electronic state is 1-A.
 Alpha  occ. eigenvalues --  -14.83988 -10.68603 -10.66177  -1.04316  -0.87960
 Alpha  occ. eigenvalues --   -0.58733  -0.53582  -0.52340  -0.44689  -0.39357
 Alpha  occ. eigenvalues --   -0.38940
 Alpha virt. eigenvalues --    0.03440   0.07547   0.07839   0.10255   0.11303
 Alpha virt. eigenvalues --    0.11816   0.14999   0.15657   0.16915   0.19981
 Alpha virt. eigenvalues --    0.20110   0.24994   0.32134   0.32926   0.34742

 Mulliken charges:
               1
     1  C   -0.108681
     2  C    0.000414
     3  N   -0.201940
     4  H    0.104176
     5  H    0.101638
     6  H    0.104394
 Sum of Mulliken charges =   0.00000

 Dipole moment (field-independent basis, Debye):
    X=             -4.1062    Y=             -0.0182    Z=              0.0074  Tot=              4.1063
 Quadrupole moment (field-independent basis, Debye-Ang):
   XX=            -21.2069   YY=            -17.6939   ZZ=            -17.8469
   XY=             -0.0387   XZ=              0.0578   YZ=              0.0184

 Normal termination of Gaussian 09 at Wed Aug 26 22:20:55 2020.
