 Gaussian 09, Revision D.01,
 Gaussian 09:  ES64L-G09RevD.01 24-Apr-2013

 --------------------
 #p B2PLYPD3/Def2QZVP
 --------------------

 ------------
 cyanomethane
 ------------
 Symbolic Z-matrix:
 Charge =  0 Multiplicity = 1

                         Standard orientation:
 ---------------------------------------------------------------------
 Center     Atomic      Atomic             Coordinates (Angstroms)
 Number     Number       Type             X           Y           Z
 ---------------------------------------------------------------------
      1          6           0        1.172840    0.033249    0.009998
      2          6           0       -0.274415    0.005102   -0.065160
      3          7           0       -1.445204   -0.012469    0.022301
      4          1           0        1.484190    1.036322    0.168676
      5          1           0        1.736762   -0.497233   -0.913121
      6          1           0        1.504930   -0.681916    0.919308
 ---------------------------------------------------------------------

 SCF Done:  E(RB2PLYPD3) =  -132.515644671     A.U. after   12 cycles
 E2(B2PLYPD3) =    -0.1834275185D+00 E(B2PLYPD3) =    -0.13269907218984D+03

 The electronic state is 1-A.
 Alpha  occ. eigenvalues --  -14.84867 -10.69063 -10.66961  -1.03454  -0.88189
 Alpha  occ. eigenvalues --   -0.59361  -0.54542  -0.50454  -0.44968  -0.38744
 Alpha  occ. eigenvalues --   -0.38040
 Alpha virt. eigenvalues --    0.03104   0.05729   0.07398   0.10119   0.11060
 Alpha virt. eigenvalues --    0.11807   0.15140   0.15917   0.16708   0.20022
 Alpha virt. eigenvalues --    0.20209   0.25618   0.31168   0.32067   0.34905

 Mulliken charges:
               1
     1  C   -0.104384
     2  C    0.009275
     3  N   -0.212531
     4  H    0.115325
     5  H    0.094235
     6  H    0.098080
 Sum of Mulliken charges =   0.00000

 Dipole moment (field-independent basis, Debye):
    X=              4.1112    Y=              0.0064    Z=              0.0001  Tot=              4.1112
 Quadrupole moment (field-independent basis, Debye-Ang):
   XX=            -21.1496   YY=            -17.7010   ZZ=            -18.1197
   XY=             -0.2205   XZ=              0.0051   YZ=              0.0469

 Normal termination of Gaussian 09 at Wed Aug 26 19:06:27 2020.
