 Gaussian 09, Revision D.01,
 Gaussian 09:  ES64L-G09RevD.01 24-Apr-2013

 --------------------
 #p B2PLYPD3/Def2QZVP
 --------------------

 ------------
 cyanomethane
 ------------
 Symbolic Z-matrix:
 Charge =  0 Multiplicity = 1

                         Standard orientation:
 ---------------------------------------------------------------------
 Center     Atomic      Atomic             Coordinates (Angstroms)
 Number     Number       Type             X           Y           Z
 ---------------------------------------------------------------------
      1          6           0       -1.178760    0.002878    0.006100
      2          6           0        0.277330    0.027907   -0.014195
      3          7           0        1.443713   -0.025078    0.008752
      4          1           0       -1.428212    1.040610   -0.098253
      5          1           0       -1.647827   -0.434750    0.880192
      6          1           0       -1.621372   -0.615020   -0.794631
 ---------------------------------------------------------------------

 SCF Done:  E(RB2PLYPD3) =  -132.528922789     A.U. after   12 cycles
 E2(B2PLYPD3) =    -0.1818553818D+00 E(B2PLYPD3) =    -0.13271077817125D+03

 The electronic state is 1-A.
 Alpha  occ. eigenvalues --  -14.84655 -10.67081 -10.66765  -1.03660  -0.89360
 Alpha  occ. eigenvalues --   -0.60684  -0.54747  -0.52360  -0.44917  -0.38808
 Alpha  occ. eigenvalues --   -0.38677
 Alpha virt. eigenvalues --    0.03688   0.07001   0.08092   0.10017   0.11146
 Alpha virt. eigenvalues --    0.11646   0.15131   0.16105   0.17101   0.20017
 Alpha virt. eigenvalues --    0.20337   0.25445   0.32589   0.34445   0.34742

 Mulliken charges:
               1
     1  C   -0.077195
     2  C    0.004472
     3  N   -0.212127
     4  H    0.100923
     5  H    0.092748
     6  H    0.091179
 Sum of Mulliken charges =   0.00000

 Dipole moment (field-independent basis, Debye):
    X=             -4.1530    Y=              0.0130    Z=             -0.0056  Tot=              4.1530
 Quadrupole moment (field-independent basis, Debye-Ang):
   XX=            -20.8546   YY=            -17.6327   ZZ=            -18.0716
   XY=              0.3749   XZ=             -0.0930   YZ=             -0.0196

 Normal termination of Gaussian 09 at Wed Aug 26 11:14:50 2020.
