 Gaussian 09, Revision D.01,
 Gaussian 09:  ES64L-G09RevD.01 24-Apr-2013

 --------------------
 #p B2PLYPD3/Def2QZVP
 --------------------

 ------------
 cyanomethane
 ------------
 Symbolic Z-matrix:
 Charge =  0 Multiplicity = 1

                         Standard orientation:
 ---------------------------------------------------------------------
 Center     Atomic      Atomic             Coordinates (Angstroms)
 Number     Number       Type             X           Y           Z
 ---------------------------------------------------------------------
      1          6           0        1.176972   -0.007689   -0.004129
      2          6           0       -0.278785   -0.005805   -0.012248
      3          7           0       -1.441215    0.003551    0.003786
      4          1           0        1.571409    1.017772   -0.194702
      5          1           0        1.602232   -0.675577   -0.702668
      6          1           0        1.525744   -0.286085    0.969138
 ---------------------------------------------------------------------

 SCF Done:  E(RB2PLYPD3) =  -132.533482718     A.U. after   12 cycles
 E2(B2PLYPD3) =    -0.1810961471D+00 E(B2PLYPD3) =    -0.13271457886490D+03

 The electronic state is 1-A.
 Alpha  occ. eigenvalues --  -14.84495 -10.66849 -10.66582  -1.03848  -0.89443
 Alpha  occ. eigenvalues --   -0.60412  -0.54404  -0.53359  -0.44897  -0.39019
 Alpha  occ. eigenvalues --   -0.38830
 Alpha virt. eigenvalues --    0.03765   0.07591   0.07958   0.10170   0.11275
 Alpha virt. eigenvalues --    0.11498   0.15444   0.16207   0.16773   0.20101
 Alpha virt. eigenvalues --    0.20153   0.25371   0.32632   0.34334   0.35206

 Mulliken charges:
               1
     1  C   -0.073051
     2  C    0.001785
     3  N   -0.209685
     4  H    0.091746
     5  H    0.095595
     6  H    0.093610
 Sum of Mulliken charges =   0.00000

 Dipole moment (field-independent basis, Debye):
    X=              4.1527    Y=             -0.0140    Z=              0.0152  Tot=              4.1528
 Quadrupole moment (field-independent basis, Debye-Ang):
   XX=            -20.8422   YY=            -17.7693   ZZ=            -17.8544
   XY=             -0.0045   XZ=              0.0168   YZ=              0.0321

 Normal termination of Gaussian 09 at Thu Aug 27 00:07:44 2020.
