 Gaussian 09, Revision D.01,
 Gaussian 09:  ES64L-G09RevD.01 24-Apr-2013

 --------------------
 #p B2PLYPD3/Def2QZVP
 --------------------

 ------------
 cyanomethane
 ------------
 Symbolic Z-matrix:
 Charge =  0 Multiplicity = 1

                         Standard orientation:
 ---------------------------------------------------------------------
 Center     Atomic      Atomic             Coordinates (Angstroms)
 Number     Number       Type             X           Y           Z
 ---------------------------------------------------------------------
      1          6           0        1.185094    0.028841   -0.023263
      2          6           0       -0.297667   -0.062058   -0.011080
      3          7           0       -1.440360    0.031563    0.005148
      4          1           0        1.615689    1.052065   -0.085879
      5          1           0        1.610304   -0.671730   -0.711662
      6          1           0        1.531966   -0.401971    0.967562
 ---------------------------------------------------------------------

 SCF Done:  E(RB2PLYPD3) =  -132.529253607     A.U. after   12 cycles
 E2(B2PLYPD3) =    -0.1803448125D+00 E(B2PLYPD3) =    -0.13270959841992D+03

 The electronic state is 1-A.
 Alpha  occ. eigenvalues --  -14.84148 -10.67847 -10.66302  -1.04484  -0.88299
 Alpha  occ. eigenvalues --   -0.59574  -0.54365  -0.51667  -0.44874  -0.39633
 Alpha  occ. eigenvalues --   -0.39064
 Alpha virt. eigenvalues --    0.03464   0.07383   0.08307   0.10073   0.11215
 Alpha virt. eigenvalues --    0.11812   0.15262   0.15529   0.17875   0.20040
 Alpha virt. eigenvalues --    0.20144   0.25298   0.32501   0.33165   0.35263

 Mulliken charges:
               1
     1  C   -0.084006
     2  C    0.002425
     3  N   -0.200376
     4  H    0.102689
     5  H    0.094859
     6  H    0.084409
 Sum of Mulliken charges =   0.00000

 Dipole moment (field-independent basis, Debye):
    X=              4.1219    Y=             -0.0856    Z=              0.0301  Tot=              4.1229
 Quadrupole moment (field-independent basis, Debye-Ang):
   XX=            -20.8432   YY=            -17.5757   ZZ=            -18.0953
   XY=              0.1046   XZ=              0.0758   YZ=              0.0548

 Normal termination of Gaussian 09 at Wed Aug 26 23:53:48 2020.
