 Gaussian 09, Revision D.01,
 Gaussian 09:  ES64L-G09RevD.01 24-Apr-2013

 --------------------
 #p B2PLYPD3/Def2QZVP
 --------------------

 ------------
 cyanomethane
 ------------
 Symbolic Z-matrix:
 Charge =  0 Multiplicity = 1

                         Standard orientation:
 ---------------------------------------------------------------------
 Center     Atomic      Atomic             Coordinates (Angstroms)
 Number     Number       Type             X           Y           Z
 ---------------------------------------------------------------------
      1          6           0        1.173564   -0.006729    0.005687
      2          6           0       -0.273432    0.003180   -0.022989
      3          7           0       -1.440523   -0.002382    0.011740
      4          1           0        1.541095    1.042905    0.006952
      5          1           0        1.566916   -0.503044   -0.854594
      6          1           0        1.574855   -0.501893    0.869278
 ---------------------------------------------------------------------

 SCF Done:  E(RB2PLYPD3) =  -132.533276797     A.U. after   11 cycles
 E2(B2PLYPD3) =    -0.1815908097D+00 E(B2PLYPD3) =    -0.13271486760625D+03

 The electronic state is 1-A.
 Alpha  occ. eigenvalues --  -14.84612 -10.66906 -10.66668  -1.03660  -0.89512
 Alpha  occ. eigenvalues --   -0.60449  -0.54141  -0.53653  -0.44910  -0.38795
 Alpha  occ. eigenvalues --   -0.38700
 Alpha virt. eigenvalues --    0.03751   0.07440   0.07756   0.10115   0.11326
 Alpha virt. eigenvalues --    0.11429   0.15476   0.16151   0.16669   0.20134
 Alpha virt. eigenvalues --    0.20175   0.25560   0.32684   0.34343   0.34996

 Mulliken charges:
               1
     1  C   -0.074905
     2  C    0.002457
     3  N   -0.212060
     4  H    0.093964
     5  H    0.094847
     6  H    0.095698
 Sum of Mulliken charges =   0.00000

 Dipole moment (field-independent basis, Debye):
    X=              4.1512    Y=             -0.0076    Z=             -0.0166  Tot=              4.1512
 Quadrupole moment (field-independent basis, Debye-Ang):
   XX=            -20.8937   YY=            -17.7681   ZZ=            -17.8587
   XY=             -0.0621   XZ=              0.0649   YZ=              0.0028

 Normal termination of Gaussian 09 at Thu Aug 27 00:13:18 2020.
