 Gaussian 09, Revision D.01,
 Gaussian 09:  ES64L-G09RevD.01 24-Apr-2013

 --------------------
 #p B2PLYPD3/Def2QZVP
 --------------------

 ------------
 cyanomethane
 ------------
 Symbolic Z-matrix:
 Charge =  0 Multiplicity = 1

                         Standard orientation:
 ---------------------------------------------------------------------
 Center     Atomic      Atomic             Coordinates (Angstroms)
 Number     Number       Type             X           Y           Z
 ---------------------------------------------------------------------
      1          6           0        1.174284    0.027534   -0.000314
      2          6           0       -0.270864    0.032547   -0.006938
      3          7           0       -1.430845   -0.030749   -0.002976
      4          1           0        1.397429    1.102513    0.063222
      5          1           0        1.670312   -0.586151   -0.903781
      6          1           0        1.527659   -0.661606    0.904902
 ---------------------------------------------------------------------

 SCF Done:  E(RB2PLYPD3) =  -132.514337878     A.U. after   12 cycles
 E2(B2PLYPD3) =    -0.1824941093D+00 E(B2PLYPD3) =    -0.13269683198740D+03

 The electronic state is 1-A.
 Alpha  occ. eigenvalues --  -14.84287 -10.69224 -10.66350  -1.03814  -0.88313
 Alpha  occ. eigenvalues --   -0.58398  -0.55069  -0.50442  -0.44710  -0.38803
 Alpha  occ. eigenvalues --   -0.38143
 Alpha virt. eigenvalues --    0.03101   0.05870   0.07841   0.10094   0.11136
 Alpha virt. eigenvalues --    0.12124   0.14757   0.15752   0.16559   0.19944
 Alpha virt. eigenvalues --    0.20311   0.25429   0.31655   0.31960   0.34422

 Mulliken charges:
               1
     1  C   -0.114989
     2  C    0.003791
     3  N   -0.209292
     4  H    0.119589
     5  H    0.099675
     6  H    0.101227
 Sum of Mulliken charges =   0.00000

 Dipole moment (field-independent basis, Debye):
    X=              4.0791    Y=             -0.0040    Z=              0.0133  Tot=              4.0792
 Quadrupole moment (field-independent basis, Debye-Ang):
   XX=            -21.4826   YY=            -17.3799   ZZ=            -18.1722
   XY=             -0.4964   XZ=             -0.1088   YZ=              0.0103

 Normal termination of Gaussian 09 at Wed Aug 26 19:05:04 2020.
