 Gaussian 09, Revision D.01,
 Gaussian 09:  ES64L-G09RevD.01 24-Apr-2013

 --------------------
 #p B2PLYPD3/Def2QZVP
 --------------------

 ------------
 cyanomethane
 ------------
 Symbolic Z-matrix:
 Charge =  0 Multiplicity = 1

                         Standard orientation:
 ---------------------------------------------------------------------
 Center     Atomic      Atomic             Coordinates (Angstroms)
 Number     Number       Type             X           Y           Z
 ---------------------------------------------------------------------
      1          6           0       -1.177238   -0.000636   -0.009190
      2          6           0        0.284955    0.011652    0.010544
      3          7           0        1.437392   -0.004051   -0.003094
      4          1           0       -1.587392   -0.095875    1.001348
      5          1           0       -1.534755   -0.853425   -0.564082
      6          1           0       -1.585898    0.911561   -0.423732
 ---------------------------------------------------------------------

 SCF Done:  E(RB2PLYPD3) =  -132.535522998     A.U. after   11 cycles
 E2(B2PLYPD3) =    -0.1802793922D+00 E(B2PLYPD3) =    -0.13271580239001D+03

 The electronic state is 1-A.
 Alpha  occ. eigenvalues --  -14.84223 -10.67015 -10.66309  -1.04230  -0.89157
 Alpha  occ. eigenvalues --   -0.60093  -0.54228  -0.53246  -0.44854  -0.39256
 Alpha  occ. eigenvalues --   -0.39114
 Alpha virt. eigenvalues --    0.03774   0.07862   0.08007   0.10197   0.11381
 Alpha virt. eigenvalues --    0.11559   0.15407   0.16388   0.16714   0.20044
 Alpha virt. eigenvalues --    0.20096   0.25283   0.32716   0.34524   0.35052

 Mulliken charges:
               1
     1  C   -0.075585
     2  C   -0.000472
     3  N   -0.204577
     4  H    0.090116
     5  H    0.095768
     6  H    0.094751
 Sum of Mulliken charges =   0.00000

 Dipole moment (field-independent basis, Debye):
    X=             -4.1371    Y=             -0.0013    Z=              0.0142  Tot=              4.1371
 Quadrupole moment (field-independent basis, Debye-Ang):
   XX=            -20.8464   YY=            -17.7153   ZZ=            -17.8640
   XY=              0.0046   XZ=             -0.0345   YZ=              0.0065

 Normal termination of Gaussian 09 at Wed Aug 26 09:45:40 2020.
