 Gaussian 09, Revision D.01,
 Gaussian 09:  ES64L-G09RevD.01 24-Apr-2013

 --------------------
 #p B2PLYPD3/Def2QZVP
 --------------------

 ------------
 cyanomethane
 ------------
 Symbolic Z-matrix:
 Charge =  0 Multiplicity = 1

                         Standard orientation:
 ---------------------------------------------------------------------
 Center     Atomic      Atomic             Coordinates (Angstroms)
 Number     Number       Type             X           Y           Z
 ---------------------------------------------------------------------
      1          6           0       -1.183443   -0.033539    0.001937
      2          6           0        0.261487    0.015387    0.047683
      3          7           0        1.420761    0.001795   -0.037043
      4          1           0       -1.283736   -0.421172    0.896240
      5          1           0       -1.558407   -0.579739   -0.834520
      6          1           0       -1.571444    1.097257   -0.100140
 ---------------------------------------------------------------------

 SCF Done:  E(RB2PLYPD3) =  -132.508990709     A.U. after   13 cycles
 E2(B2PLYPD3) =    -0.1815746433D+00 E(B2PLYPD3) =    -0.13269056535274D+03

 The electronic state is 1-A.
 Alpha  occ. eigenvalues --  -14.84171 -10.66819 -10.66204  -1.03811  -0.90573
 Alpha  occ. eigenvalues --   -0.59338  -0.56726  -0.52403  -0.44575  -0.38790
 Alpha  occ. eigenvalues --   -0.38424
 Alpha virt. eigenvalues --    0.03498   0.06740   0.09337   0.10030   0.11071
 Alpha virt. eigenvalues --    0.11701   0.14670   0.15452   0.16670   0.20111
 Alpha virt. eigenvalues --    0.20243   0.25575   0.31309   0.33904   0.35748

 Mulliken charges:
               1
     1  C   -0.112848
     2  C   -0.000095
     3  N   -0.213411
     4  H    0.121027
     5  H    0.109038
     6  H    0.096288
 Sum of Mulliken charges =   0.00000

 Dipole moment (field-independent basis, Debye):
    X=             -4.0591    Y=             -0.0256    Z=              0.0357  Tot=              4.0593
 Quadrupole moment (field-independent basis, Debye-Ang):
   XX=            -21.4844   YY=            -17.6572   ZZ=            -17.6022
   XY=             -0.0790   XZ=              0.4459   YZ=             -0.0498

 Normal termination of Gaussian 09 at Wed Aug 26 23:41:33 2020.
