 Gaussian 09, Revision D.01,
 Gaussian 09:  ES64L-G09RevD.01 24-Apr-2013

 --------------------
 #p B2PLYPD3/Def2QZVP
 --------------------

 ------------
 cyanomethane
 ------------
 Symbolic Z-matrix:
 Charge =  0 Multiplicity = 1

                         Standard orientation:
 ---------------------------------------------------------------------
 Center     Atomic      Atomic             Coordinates (Angstroms)
 Number     Number       Type             X           Y           Z
 ---------------------------------------------------------------------
      1          6           0       -1.183342   -0.002819   -0.010238
      2          6           0        0.275409    0.019796   -0.006034
      3          7           0        1.437338   -0.012076    0.004153
      4          1           0       -1.513208    0.954605   -0.371822
      5          1           0       -1.540847   -0.140537    1.045020
      6          1           0       -1.559709   -0.831401   -0.604644
 ---------------------------------------------------------------------

 SCF Done:  E(RB2PLYPD3) =  -132.533530194     A.U. after   12 cycles
 E2(B2PLYPD3) =    -0.1812295169D+00 E(B2PLYPD3) =    -0.13271475971075D+03

 The electronic state is 1-A.
 Alpha  occ. eigenvalues --  -14.84356 -10.67365 -10.66435  -1.03763  -0.89174
 Alpha  occ. eigenvalues --   -0.59331  -0.54774  -0.53235  -0.44749  -0.38925
 Alpha  occ. eigenvalues --   -0.38718
 Alpha virt. eigenvalues --    0.03689   0.07516   0.08071   0.10148   0.11211
 Alpha virt. eigenvalues --    0.11507   0.15314   0.15845   0.16441   0.20085
 Alpha virt. eigenvalues --    0.20177   0.25305   0.32546   0.33946   0.34967

 Mulliken charges:
               1
     1  C   -0.091347
     2  C   -0.000714
     3  N   -0.210271
     4  H    0.102960
     5  H    0.096880
     6  H    0.102492
 Sum of Mulliken charges =   0.00000

 Dipole moment (field-independent basis, Debye):
    X=             -4.1306    Y=              0.0167    Z=              0.0012  Tot=              4.1306
 Quadrupole moment (field-independent basis, Debye-Ang):
   XX=            -21.1460   YY=            -17.6795   ZZ=            -17.8175
   XY=              0.1006   XZ=             -0.0428   YZ=              0.0057

 Normal termination of Gaussian 09 at Wed Aug 26 11:57:59 2020.
