 Gaussian 09, Revision D.01,
 Gaussian 09:  ES64L-G09RevD.01 24-Apr-2013

 --------------------
 #p B2PLYPD3/Def2QZVP
 --------------------

 ------------
 cyanomethane
 ------------
 Symbolic Z-matrix:
 Charge =  0 Multiplicity = 1

                         Standard orientation:
 ---------------------------------------------------------------------
 Center     Atomic      Atomic             Coordinates (Angstroms)
 Number     Number       Type             X           Y           Z
 ---------------------------------------------------------------------
      1          6           0       -1.180873    0.010158    0.000139
      2          6           0        0.281840    0.000501   -0.023413
      3          7           0        1.430114    0.000735    0.012933
      4          1           0       -1.540160   -0.286822    0.986081
      5          1           0       -1.512914   -0.742393   -0.694520
      6          1           0       -1.563524    0.960116   -0.242451
 ---------------------------------------------------------------------

 SCF Done:  E(RB2PLYPD3) =  -132.535109489     A.U. after   11 cycles
 E2(B2PLYPD3) =    -0.1797760529D+00 E(B2PLYPD3) =    -0.13271488554182D+03

 The electronic state is 1-A.
 Alpha  occ. eigenvalues --  -14.83987 -10.66666 -10.66045  -1.04308  -0.89511
 Alpha  occ. eigenvalues --   -0.59641  -0.54985  -0.53656  -0.44719  -0.39339
 Alpha  occ. eigenvalues --   -0.39120
 Alpha virt. eigenvalues --    0.03824   0.08091   0.08478   0.10199   0.11314
 Alpha virt. eigenvalues --    0.11594   0.15417   0.15990   0.16671   0.20031
 Alpha virt. eigenvalues --    0.20111   0.25271   0.32889   0.34416   0.35325

 Mulliken charges:
               1
     1  C   -0.081816
     2  C   -0.003550
     3  N   -0.203929
     4  H    0.094259
     5  H    0.095882
     6  H    0.099155
 Sum of Mulliken charges =   0.00000

 Dipole moment (field-independent basis, Debye):
    X=             -4.1221    Y=             -0.0138    Z=             -0.0142  Tot=              4.1221
 Quadrupole moment (field-independent basis, Debye-Ang):
   XX=            -20.9994   YY=            -17.6334   ZZ=            -17.7707
   XY=             -0.0084   XZ=             -0.0979   YZ=             -0.0061

 Normal termination of Gaussian 09 at Wed Aug 26 18:30:57 2020.
