 Gaussian 09, Revision D.01,
 Gaussian 09:  ES64L-G09RevD.01 24-Apr-2013

 --------------------
 #p B2PLYPD3/Def2QZVP
 --------------------

 ------------
 cyanomethane
 ------------
 Symbolic Z-matrix:
 Charge =  0 Multiplicity = 1

                         Standard orientation:
 ---------------------------------------------------------------------
 Center     Atomic      Atomic             Coordinates (Angstroms)
 Number     Number       Type             X           Y           Z
 ---------------------------------------------------------------------
      1          6           0        1.195988   -0.013240   -0.037518
      2          6           0       -0.263816    0.041785    0.064057
      3          7           0       -1.447906   -0.017622   -0.017551
      4          1           0        1.649299   -0.493245    0.836016
      5          1           0        1.545678    0.988390   -0.053938
      6          1           0        1.347334   -0.543058   -0.818452
 ---------------------------------------------------------------------

 SCF Done:  E(RB2PLYPD3) =  -132.513689482     A.U. after   12 cycles
 E2(B2PLYPD3) =    -0.1830656928D+00 E(B2PLYPD3) =    -0.13269675517506D+03

 The electronic state is 1-A.
 Alpha  occ. eigenvalues --  -14.85061 -10.67158 -10.65750  -1.02826  -0.90737
 Alpha  occ. eigenvalues --   -0.59721  -0.57718  -0.53579  -0.44785  -0.38470
 Alpha  occ. eigenvalues --   -0.38203
 Alpha virt. eigenvalues --    0.03865   0.07356   0.08011   0.10206   0.10896
 Alpha virt. eigenvalues --    0.11184   0.15160   0.15813   0.16186   0.20143
 Alpha virt. eigenvalues --    0.20278   0.25571   0.32096   0.34427   0.36103

 Mulliken charges:
               1
     1  C   -0.084591
     2  C    0.003111
     3  N   -0.223580
     4  H    0.088891
     5  H    0.099331
     6  H    0.116838
 Sum of Mulliken charges =   0.00000

 Dipole moment (field-independent basis, Debye):
    X=              4.1692    Y=              0.0150    Z=              0.0220  Tot=              4.1693
 Quadrupole moment (field-independent basis, Debye-Ang):
   XX=            -21.0125   YY=            -17.6914   ZZ=            -17.8564
   XY=             -0.0414   XZ=              0.1501   YZ=              0.1087

 Normal termination of Gaussian 09 at Wed Aug 26 22:59:03 2020.
