 Gaussian 09, Revision D.01,
 Gaussian 09:  ES64L-G09RevD.01 24-Apr-2013

 --------------------
 #p B2PLYPD3/Def2QZVP
 --------------------

 ------------
 cyanomethane
 ------------
 Symbolic Z-matrix:
 Charge =  0 Multiplicity = 1

                         Standard orientation:
 ---------------------------------------------------------------------
 Center     Atomic      Atomic             Coordinates (Angstroms)
 Number     Number       Type             X           Y           Z
 ---------------------------------------------------------------------
      1          6           0        1.158224    0.004974    0.022597
      2          6           0       -0.280404   -0.035695   -0.028416
      3          7           0       -1.427965    0.021279    0.019079
      4          1           0        1.607357    1.100262   -0.113659
      5          1           0        1.478231   -0.602628   -0.871945
      6          1           0        1.643248   -0.462259    0.886960
 ---------------------------------------------------------------------

 SCF Done:  E(RB2PLYPD3) =  -132.525154244     A.U. after   12 cycles
 E2(B2PLYPD3) =    -0.1810325178D+00 E(B2PLYPD3) =    -0.13270618676157D+03

 The electronic state is 1-A.
 Alpha  occ. eigenvalues --  -14.84187 -10.68319 -10.66215  -1.04444  -0.88517
 Alpha  occ. eigenvalues --   -0.60065  -0.52861  -0.52232  -0.44930  -0.39123
 Alpha  occ. eigenvalues --   -0.38806
 Alpha virt. eigenvalues --    0.03322   0.06754   0.07627   0.10016   0.11707
 Alpha virt. eigenvalues --    0.11822   0.15384   0.15579   0.17760   0.20014
 Alpha virt. eigenvalues --    0.20244   0.25869   0.32327   0.33070   0.34376

 Mulliken charges:
               1
     1  C   -0.097493
     2  C    0.006934
     3  N   -0.202120
     4  H    0.096649
     5  H    0.094530
     6  H    0.101499
 Sum of Mulliken charges =   0.00000

 Dipole moment (field-independent basis, Debye):
    X=              4.0872    Y=             -0.0728    Z=             -0.0421  Tot=              4.0881
 Quadrupole moment (field-independent basis, Debye-Ang):
   XX=            -20.9757   YY=            -17.7271   ZZ=            -17.9336
   XY=              0.0799   XZ=              0.1851   YZ=             -0.0366

 Normal termination of Gaussian 09 at Wed Aug 26 21:56:05 2020.
