 Gaussian 09, Revision D.01,
 Gaussian 09:  ES64L-G09RevD.01 24-Apr-2013

 --------------------
 #p B2PLYPD3/Def2QZVP
 --------------------

 ------------
 cyanomethane
 ------------
 Symbolic Z-matrix:
 Charge =  0 Multiplicity = 1

                         Standard orientation:
 ---------------------------------------------------------------------
 Center     Atomic      Atomic             Coordinates (Angstroms)
 Number     Number       Type             X           Y           Z
 ---------------------------------------------------------------------
      1          6           0       -1.170150    0.002629   -0.004675
      2          6           0        0.273477    0.005224    0.019103
      3          7           0        1.431032   -0.005282   -0.006522
      4          1           0       -1.503617    0.967158   -0.340408
      5          1           0       -1.591660   -0.203653    0.982756
      6          1           0       -1.541906   -0.773644   -0.683264
 ---------------------------------------------------------------------

 SCF Done:  E(RB2PLYPD3) =  -132.535075795     A.U. after   11 cycles
 E2(B2PLYPD3) =    -0.1807326998D+00 E(B2PLYPD3) =    -0.13271580849483D+03

 The electronic state is 1-A.
 Alpha  occ. eigenvalues --  -14.84258 -10.66943 -10.66280  -1.04011  -0.89514
 Alpha  occ. eigenvalues --   -0.59985  -0.54463  -0.53603  -0.44808  -0.38949
 Alpha  occ. eigenvalues --   -0.38879
 Alpha virt. eigenvalues --    0.03771   0.07634   0.07982   0.10157   0.11430
 Alpha virt. eigenvalues --    0.11550   0.15481   0.16206   0.16449   0.20098
 Alpha virt. eigenvalues --    0.20135   0.25604   0.32836   0.34494   0.34799

 Mulliken charges:
               1
     1  C   -0.082134
     2  C   -0.000331
     3  N   -0.208201
     4  H    0.099317
     5  H    0.094740
     6  H    0.096609
 Sum of Mulliken charges =   0.00000

 Dipole moment (field-independent basis, Debye):
    X=             -4.1286    Y=              0.0073    Z=              0.0064  Tot=              4.1286
 Quadrupole moment (field-independent basis, Debye-Ang):
   XX=            -20.9948   YY=            -17.7097   ZZ=            -17.7884
   XY=              0.0716   XZ=             -0.0109   YZ=             -0.0156

 Normal termination of Gaussian 09 at Thu Aug 27 00:12:36 2020.
