 Gaussian 09, Revision D.01,
 Gaussian 09:  ES64L-G09RevD.01 24-Apr-2013

 --------------------
 #p B2PLYPD3/Def2QZVP
 --------------------

 ------------
 cyanomethane
 ------------
 Symbolic Z-matrix:
 Charge =  0 Multiplicity = 1

                         Standard orientation:
 ---------------------------------------------------------------------
 Center     Atomic      Atomic             Coordinates (Angstroms)
 Number     Number       Type             X           Y           Z
 ---------------------------------------------------------------------
      1          6           0       -1.160144    0.002188   -0.013430
      2          6           0        0.270496    0.008644    0.037961
      3          7           0        1.434935   -0.006764   -0.018161
      4          1           0       -1.541447    1.001802   -0.101804
      5          1           0       -1.582738   -0.427087    0.894004
      6          1           0       -1.582469   -0.592362   -0.812259
 ---------------------------------------------------------------------

 SCF Done:  E(RB2PLYPD3) =  -132.532934781     A.U. after   12 cycles
 E2(B2PLYPD3) =    -0.1814819797D+00 E(B2PLYPD3) =    -0.13271441676089D+03

 The electronic state is 1-A.
 Alpha  occ. eigenvalues --  -14.84603 -10.66629 -10.66565  -1.03811  -0.89791
 Alpha  occ. eigenvalues --   -0.61050  -0.54341  -0.53368  -0.44985  -0.38817
 Alpha  occ. eigenvalues --   -0.38678
 Alpha virt. eigenvalues --    0.03762   0.07291   0.07713   0.10061   0.11381
 Alpha virt. eigenvalues --    0.11593   0.15643   0.16174   0.16985   0.20116
 Alpha virt. eigenvalues --    0.20200   0.25931   0.32962   0.34579   0.34989

 Mulliken charges:
               1
     1  C   -0.066358
     2  C    0.004139
     3  N   -0.211145
     4  H    0.093530
     5  H    0.087818
     6  H    0.092016
 Sum of Mulliken charges =   0.00000

 Dipole moment (field-independent basis, Debye):
    X=             -4.1475    Y=              0.0015    Z=              0.0295  Tot=              4.1476
 Quadrupole moment (field-independent basis, Debye-Ang):
   XX=            -20.7596   YY=            -17.7573   ZZ=            -17.8981
   XY=              0.0913   XZ=              0.0798   YZ=              0.0048

 Normal termination of Gaussian 09 at Wed Aug 26 14:47:37 2020.
