 Gaussian 09, Revision D.01,
 Gaussian 09:  ES64L-G09RevD.01 24-Apr-2013

 --------------------
 #p B2PLYPD3/Def2QZVP
 --------------------

 ------------
 cyanomethane
 ------------
 Symbolic Z-matrix:
 Charge =  0 Multiplicity = 1

                         Standard orientation:
 ---------------------------------------------------------------------
 Center     Atomic      Atomic             Coordinates (Angstroms)
 Number     Number       Type             X           Y           Z
 ---------------------------------------------------------------------
      1          6           0        1.187300   -0.003831   -0.001220
      2          6           0       -0.282791    0.017912   -0.010938
      3          7           0       -1.438774   -0.010059    0.013239
      4          1           0        1.652921   -0.159209    0.970892
      5          1           0        1.497075    0.974445   -0.368603
      6          1           0        1.494366   -0.829303   -0.622014
 ---------------------------------------------------------------------

 SCF Done:  E(RB2PLYPD3) =  -132.533067586     A.U. after   12 cycles
 E2(B2PLYPD3) =    -0.1806849266D+00 E(B2PLYPD3) =    -0.13271375251212D+03

 The electronic state is 1-A.
 Alpha  occ. eigenvalues --  -14.84247 -10.67167 -10.66366  -1.04002  -0.89140
 Alpha  occ. eigenvalues --   -0.59648  -0.54880  -0.52916  -0.44755  -0.39099
 Alpha  occ. eigenvalues --   -0.38982
 Alpha virt. eigenvalues --    0.03748   0.07588   0.08357   0.10172   0.11231
 Alpha virt. eigenvalues --    0.11541   0.15232   0.15829   0.16831   0.20037
 Alpha virt. eigenvalues --    0.20174   0.25132   0.32571   0.34436   0.34818

 Mulliken charges:
               1
     1  C   -0.087004
     2  C   -0.000467
     3  N   -0.207366
     4  H    0.093674
     5  H    0.100282
     6  H    0.100880
 Sum of Mulliken charges =   0.00000

 Dipole moment (field-independent basis, Debye):
    X=              4.1352    Y=              0.0049    Z=             -0.0068  Tot=              4.1352
 Quadrupole moment (field-independent basis, Debye-Ang):
   XX=            -21.0166   YY=            -17.5983   ZZ=            -17.9300
   XY=             -0.0968   XZ=              0.2318   YZ=              0.0166

 Normal termination of Gaussian 09 at Wed Aug 26 13:19:40 2020.
