 Gaussian 09, Revision D.01,
 Gaussian 09:  ES64L-G09RevD.01 24-Apr-2013

 --------------------
 #p B2PLYPD3/Def2QZVP
 --------------------

 ------------
 cyanomethane
 ------------
 Symbolic Z-matrix:
 Charge =  0 Multiplicity = 1

                         Standard orientation:
 ---------------------------------------------------------------------
 Center     Atomic      Atomic             Coordinates (Angstroms)
 Number     Number       Type             X           Y           Z
 ---------------------------------------------------------------------
      1          6           0        1.184142    0.004378   -0.004034
      2          6           0       -0.276429    0.019011    0.005961
      3          7           0       -1.437337   -0.006264   -0.002853
      4          1           0        1.524136   -0.246858    0.973050
      5          1           0        1.593347    0.923727   -0.298454
      6          1           0        1.497600   -0.773352   -0.666187
 ---------------------------------------------------------------------

 SCF Done:  E(RB2PLYPD3) =  -132.533738274     A.U. after   12 cycles
 E2(B2PLYPD3) =    -0.1806799002D+00 E(B2PLYPD3) =    -0.13271441817414D+03

 The electronic state is 1-A.
 Alpha  occ. eigenvalues --  -14.84340 -10.66430 -10.66300  -1.03827  -0.89890
 Alpha  occ. eigenvalues --   -0.59973  -0.54990  -0.54299  -0.44769  -0.39040
 Alpha  occ. eigenvalues --   -0.38875
 Alpha virt. eigenvalues --    0.03879   0.08159   0.08202   0.10206   0.11191
 Alpha virt. eigenvalues --    0.11414   0.15404   0.15991   0.16569   0.20101
 Alpha virt. eigenvalues --    0.20164   0.25273   0.32799   0.34705   0.35401

 Mulliken charges:
               1
     1  C   -0.075158
     2  C   -0.001224
     3  N   -0.210467
     4  H    0.094412
     5  H    0.096499
     6  H    0.095937
 Sum of Mulliken charges =   0.00000

 Dipole moment (field-independent basis, Debye):
    X=              4.1512    Y=             -0.0067    Z=              0.0095  Tot=              4.1513
 Quadrupole moment (field-independent basis, Debye-Ang):
   XX=            -20.9469   YY=            -17.6942   ZZ=            -17.7755
   XY=              0.0025   XZ=             -0.0035   YZ=             -0.0126

 Normal termination of Gaussian 09 at Thu Aug 27 00:05:34 2020.
