 Gaussian 09, Revision D.01,
 Gaussian 09:  ES64L-G09RevD.01 24-Apr-2013

 --------------------
 #p B2PLYPD3/Def2QZVP
 --------------------

 ------------
 cyanomethane
 ------------
 Symbolic Z-matrix:
 Charge =  0 Multiplicity = 1

                         Standard orientation:
 ---------------------------------------------------------------------
 Center     Atomic      Atomic             Coordinates (Angstroms)
 Number     Number       Type             X           Y           Z
 ---------------------------------------------------------------------
      1          6           0       -1.171516   -0.001797    0.005900
      2          6           0        0.286010   -0.033391    0.002681
      3          7           0        1.436540    0.019871   -0.008413
      4          1           0       -1.607823    1.080036   -0.006415
      5          1           0       -1.492025   -0.495108    0.887234
      6          1           0       -1.642893   -0.512900   -0.873418
 ---------------------------------------------------------------------

 SCF Done:  E(RB2PLYPD3) =  -132.529572428     A.U. after   12 cycles
 E2(B2PLYPD3) =    -0.1807273268D+00 E(B2PLYPD3) =    -0.13271029975499D+03

 The electronic state is 1-A.
 Alpha  occ. eigenvalues --  -14.84261 -10.67848 -10.66330  -1.04318  -0.88647
 Alpha  occ. eigenvalues --   -0.59842  -0.54110  -0.51960  -0.44908  -0.39228
 Alpha  occ. eigenvalues --   -0.39013
 Alpha virt. eigenvalues --    0.03467   0.06937   0.08161   0.10160   0.11402
 Alpha virt. eigenvalues --    0.11738   0.15384   0.16107   0.17053   0.19993
 Alpha virt. eigenvalues --    0.20144   0.25430   0.32353   0.33618   0.34817

 Mulliken charges:
               1
     1  C   -0.086345
     2  C    0.001516
     3  N   -0.202854
     4  H    0.093105
     5  H    0.101188
     6  H    0.093390
 Sum of Mulliken charges =   0.00000

 Dipole moment (field-independent basis, Debye):
    X=             -4.1140    Y=             -0.0496    Z=              0.0227  Tot=              4.1144
 Quadrupole moment (field-independent basis, Debye-Ang):
   XX=            -20.8942   YY=            -17.8082   ZZ=            -17.8530
   XY=             -0.1068   XZ=              0.1362   YZ=             -0.0533

 Normal termination of Gaussian 09 at Wed Aug 26 11:46:22 2020.
