 Gaussian 09, Revision D.01,
 Gaussian 09:  ES64L-G09RevD.01 24-Apr-2013

 --------------------
 #p B2PLYPD3/Def2QZVP
 --------------------

 ------------
 cyanomethane
 ------------
 Symbolic Z-matrix:
 Charge =  0 Multiplicity = 1

                         Standard orientation:
 ---------------------------------------------------------------------
 Center     Atomic      Atomic             Coordinates (Angstroms)
 Number     Number       Type             X           Y           Z
 ---------------------------------------------------------------------
      1          6           0        1.175667   -0.004992   -0.002157
      2          6           0       -0.272336    0.014317    0.002064
      3          7           0       -1.431810   -0.001820    0.001340
      4          1           0        1.541487   -0.330279    0.951657
      5          1           0        1.596039    0.984767   -0.211615
      6          1           0        1.465159   -0.697696   -0.748865
 ---------------------------------------------------------------------

 SCF Done:  E(RB2PLYPD3) =  -132.534395032     A.U. after   12 cycles
 E2(B2PLYPD3) =    -0.1807114680D+00 E(B2PLYPD3) =    -0.13271510649984D+03

 The electronic state is 1-A.
 Alpha  occ. eigenvalues --  -14.84259 -10.66632 -10.66299  -1.03910  -0.89784
 Alpha  occ. eigenvalues --   -0.59845  -0.54867  -0.53988  -0.44759  -0.38908
 Alpha  occ. eigenvalues --   -0.38885
 Alpha virt. eigenvalues --    0.03836   0.07767   0.08214   0.10183   0.11388
 Alpha virt. eigenvalues --    0.11440   0.15439   0.16006   0.16474   0.20119
 Alpha virt. eigenvalues --    0.20149   0.25502   0.32785   0.34748   0.34931

 Mulliken charges:
               1
     1  C   -0.081839
     2  C   -0.001305
     3  N   -0.209789
     4  H    0.096683
     5  H    0.095650
     6  H    0.100601
 Sum of Mulliken charges =   0.00000

 Dipole moment (field-independent basis, Debye):
    X=              4.1354    Y=             -0.0121    Z=              0.0008  Tot=              4.1354
 Quadrupole moment (field-independent basis, Debye-Ang):
   XX=            -21.0248   YY=            -17.7018   ZZ=            -17.7479
   XY=              0.0487   XZ=              0.0551   YZ=              0.0259

 Normal termination of Gaussian 09 at Wed Aug 26 22:30:08 2020.
