 Gaussian 09, Revision D.01,
 Gaussian 09:  ES64L-G09RevD.01 24-Apr-2013

 --------------------
 #p B2PLYPD3/Def2QZVP
 --------------------

 ------------
 cyanomethane
 ------------
 Symbolic Z-matrix:
 Charge =  0 Multiplicity = 1

                         Standard orientation:
 ---------------------------------------------------------------------
 Center     Atomic      Atomic             Coordinates (Angstroms)
 Number     Number       Type             X           Y           Z
 ---------------------------------------------------------------------
      1          6           0       -1.194034   -0.022098   -0.011000
      2          6           0        0.284858    0.041469    0.015226
      3          7           0        1.436784   -0.019315   -0.010119
      4          1           0       -1.556040   -0.844154   -0.579991
      5          1           0       -1.555427    0.955169   -0.418873
      6          1           0       -1.490966   -0.092041    1.044340
 ---------------------------------------------------------------------

 SCF Done:  E(RB2PLYPD3) =  -132.532787721     A.U. after   12 cycles
 E2(B2PLYPD3) =    -0.1805478215D+00 E(B2PLYPD3) =    -0.13271333554220D+03

 The electronic state is 1-A.
 Alpha  occ. eigenvalues --  -14.84120 -10.67527 -10.66232  -1.04055  -0.88812
 Alpha  occ. eigenvalues --   -0.58946  -0.54428  -0.53372  -0.44671  -0.39208
 Alpha  occ. eigenvalues --   -0.38978
 Alpha virt. eigenvalues --    0.03682   0.07877   0.08227   0.10116   0.11303
 Alpha virt. eigenvalues --    0.11433   0.15197   0.15492   0.16762   0.20045
 Alpha virt. eigenvalues --    0.20117   0.25090   0.32410   0.33895   0.35020

 Mulliken charges:
               1
     1  C   -0.096926
     2  C   -0.002139
     3  N   -0.206066
     4  H    0.106457
     5  H    0.098049
     6  H    0.100624
 Sum of Mulliken charges =   0.00000

 Dipole moment (field-independent basis, Debye):
    X=             -4.1131    Y=              0.0266    Z=              0.0257  Tot=              4.1133
 Quadrupole moment (field-independent basis, Debye-Ang):
   XX=            -21.1998   YY=            -17.6921   ZZ=            -17.7467
   XY=              0.0991   XZ=              0.0848   YZ=              0.0488

 Normal termination of Gaussian 09 at Wed Aug 26 12:18:15 2020.
