 Gaussian 09, Revision D.01,
 Gaussian 09:  ES64L-G09RevD.01 24-Apr-2013

 --------------------
 #p B2PLYPD3/Def2QZVP
 --------------------

 ------------
 cyanomethane
 ------------
 Symbolic Z-matrix:
 Charge =  0 Multiplicity = 1

                         Standard orientation:
 ---------------------------------------------------------------------
 Center     Atomic      Atomic             Coordinates (Angstroms)
 Number     Number       Type             X           Y           Z
 ---------------------------------------------------------------------
      1          6           0        1.202897    0.017328   -0.010681
      2          6           0       -0.282896   -0.049388    0.047870
      3          7           0       -1.446626    0.032632   -0.022895
      4          1           0        1.533621   -0.169466    1.012953
      5          1           0        1.629389    1.015512   -0.398819
      6          1           0        1.443363   -0.882113   -0.677002
 ---------------------------------------------------------------------

 SCF Done:  E(RB2PLYPD3) =  -132.523563308     A.U. after   13 cycles
 E2(B2PLYPD3) =    -0.1825770679D+00 E(B2PLYPD3) =    -0.13270614037597D+03

 The electronic state is 1-A.
 Alpha  occ. eigenvalues --  -14.84565 -10.68740 -10.66723  -1.03451  -0.88030
 Alpha  occ. eigenvalues --   -0.58224  -0.53483  -0.52838  -0.44688  -0.38720
 Alpha  occ. eigenvalues --   -0.38583
 Alpha virt. eigenvalues --    0.03173   0.06868   0.08159   0.10019   0.11094
 Alpha virt. eigenvalues --    0.11292   0.14732   0.15192   0.16887   0.20122
 Alpha virt. eigenvalues --    0.20181   0.25124   0.31960   0.33344   0.33858

 Mulliken charges:
               1
     1  C   -0.112628
     2  C    0.003584
     3  N   -0.212017
     4  H    0.105775
     5  H    0.108574
     6  H    0.106713
 Sum of Mulliken charges =   0.00000

 Dipole moment (field-independent basis, Debye):
    X=              4.1102    Y=             -0.0505    Z=              0.0497  Tot=              4.1108
 Quadrupole moment (field-independent basis, Debye-Ang):
   XX=            -21.3911   YY=            -17.6727   ZZ=            -17.9048
   XY=              0.3051   XZ=             -0.0425   YZ=              0.0085

 Normal termination of Gaussian 09 at Wed Aug 26 20:47:34 2020.
