 Gaussian 09, Revision D.01,
 Gaussian 09:  ES64L-G09RevD.01 24-Apr-2013

 --------------------
 #p B2PLYPD3/Def2QZVP
 --------------------

 ------------
 cyanomethane
 ------------
 Symbolic Z-matrix:
 Charge =  0 Multiplicity = 1

                         Standard orientation:
 ---------------------------------------------------------------------
 Center     Atomic      Atomic             Coordinates (Angstroms)
 Number     Number       Type             X           Y           Z
 ---------------------------------------------------------------------
      1          6           0       -1.160064    0.012003   -0.008184
      2          6           0        0.263316   -0.019685    0.033041
      3          7           0        1.424398    0.020245   -0.025079
      4          1           0       -1.348921   -0.543895    0.856779
      5          1           0       -1.561419   -0.571965   -0.829805
      6          1           0       -1.679958    1.020239   -0.000565
 ---------------------------------------------------------------------

 SCF Done:  E(RB2PLYPD3) =  -132.524335280     A.U. after   12 cycles
 E2(B2PLYPD3) =    -0.1815775209D+00 E(B2PLYPD3) =    -0.13270591280046D+03

 The electronic state is 1-A.
 Alpha  occ. eigenvalues --  -14.84342 -10.66741 -10.66369  -1.03886  -0.90238
 Alpha  occ. eigenvalues --   -0.60288  -0.54690  -0.53459  -0.44825  -0.38739
 Alpha  occ. eigenvalues --   -0.38442
 Alpha virt. eigenvalues --    0.03615   0.06814   0.08511   0.09982   0.11487
 Alpha virt. eigenvalues --    0.11694   0.14818   0.15738   0.17801   0.20162
 Alpha virt. eigenvalues --    0.20410   0.26091   0.32858   0.34341   0.34711

 Mulliken charges:
               1
     1  C   -0.090744
     2  C    0.005475
     3  N   -0.212622
     4  H    0.101495
     5  H    0.096004
     6  H    0.100392
 Sum of Mulliken charges =   0.00000

 Dipole moment (field-independent basis, Debye):
    X=             -4.1286    Y=             -0.0831    Z=              0.0567  Tot=              4.1298
 Quadrupole moment (field-independent basis, Debye-Ang):
   XX=            -20.9869   YY=            -17.6178   ZZ=            -17.8985
   XY=             -0.1748   XZ=              0.2463   YZ=             -0.0307

 Normal termination of Gaussian 09 at Wed Aug 26 22:35:46 2020.
