 Gaussian 09, Revision D.01,
 Gaussian 09:  ES64L-G09RevD.01 24-Apr-2013

 --------------------
 #p B2PLYPD3/Def2QZVP
 --------------------

 ------------
 cyanomethane
 ------------
 Symbolic Z-matrix:
 Charge =  0 Multiplicity = 1

                         Standard orientation:
 ---------------------------------------------------------------------
 Center     Atomic      Atomic             Coordinates (Angstroms)
 Number     Number       Type             X           Y           Z
 ---------------------------------------------------------------------
      1          6           0        1.169334   -0.012293    0.001519
      2          6           0       -0.273643   -0.012495   -0.010425
      3          7           0       -1.434835    0.011533    0.006731
      4          1           0        1.505988   -0.812367   -0.609678
      5          1           0        1.570355   -0.097241    1.022191
      6          1           0        1.593358    0.977609   -0.406191
 ---------------------------------------------------------------------

 SCF Done:  E(RB2PLYPD3) =  -132.531499990     A.U. after   12 cycles
 E2(B2PLYPD3) =    -0.1813230694D+00 E(B2PLYPD3) =    -0.13271282305912D+03

 The electronic state is 1-A.
 Alpha  occ. eigenvalues --  -14.84412 -10.67430 -10.66440  -1.03893  -0.89222
 Alpha  occ. eigenvalues --   -0.59939  -0.54781  -0.52479  -0.44864  -0.38939
 Alpha  occ. eigenvalues --   -0.38657
 Alpha virt. eigenvalues --    0.03615   0.07035   0.07984   0.10125   0.11290
 Alpha virt. eigenvalues --    0.11693   0.15452   0.16171   0.16536   0.20061
 Alpha virt. eigenvalues --    0.20191   0.25596   0.32482   0.33802   0.34972

 Mulliken charges:
               1
     1  C   -0.085572
     2  C    0.001170
     3  N   -0.208986
     4  H    0.102804
     5  H    0.098028
     6  H    0.092557
 Sum of Mulliken charges =   0.00000

 Dipole moment (field-independent basis, Debye):
    X=              4.1269    Y=             -0.0217    Z=             -0.0024  Tot=              4.1269
 Quadrupole moment (field-independent basis, Debye-Ang):
   XX=            -21.0113   YY=            -17.7839   ZZ=            -17.7999
   XY=              0.1213   XZ=              0.0776   YZ=              0.0773

 Normal termination of Gaussian 09 at Wed Aug 26 23:59:47 2020.
