 Gaussian 09, Revision D.01,
 Gaussian 09:  ES64L-G09RevD.01 24-Apr-2013

 --------------------
 #p B2PLYPD3/Def2QZVP
 --------------------

 ------------
 cyanomethane
 ------------
 Symbolic Z-matrix:
 Charge =  0 Multiplicity = 1

                         Standard orientation:
 ---------------------------------------------------------------------
 Center     Atomic      Atomic             Coordinates (Angstroms)
 Number     Number       Type             X           Y           Z
 ---------------------------------------------------------------------
      1          6           0        1.181044   -0.001688    0.011698
      2          6           0       -0.280912    0.004926   -0.022956
      3          7           0       -1.428638   -0.000264    0.012555
      4          1           0        1.553905   -0.085353    1.014505
      5          1           0        1.548702    0.944880   -0.450199
      6          1           0        1.497063   -0.877107   -0.584644
 ---------------------------------------------------------------------

 SCF Done:  E(RB2PLYPD3) =  -132.534603269     A.U. after   12 cycles
 E2(B2PLYPD3) =    -0.1800433292D+00 E(B2PLYPD3) =    -0.13271464659864D+03

 The electronic state is 1-A.
 Alpha  occ. eigenvalues --  -14.83935 -10.67435 -10.65997  -1.04307  -0.88995
 Alpha  occ. eigenvalues --   -0.59168  -0.54000  -0.53728  -0.44676  -0.39203
 Alpha  occ. eigenvalues --   -0.39102
 Alpha virt. eigenvalues --    0.03716   0.07926   0.08118   0.10167   0.11512
 Alpha virt. eigenvalues --    0.11550   0.15327   0.15834   0.16545   0.20064
 Alpha virt. eigenvalues --    0.20077   0.25284   0.32629   0.34107   0.34735

 Mulliken charges:
               1
     1  C   -0.096071
     2  C   -0.003021
     3  N   -0.203408
     4  H    0.102371
     5  H    0.099387
     6  H    0.100743
 Sum of Mulliken charges =   0.00000

 Dipole moment (field-independent basis, Debye):
    X=              4.1019    Y=             -0.0056    Z=             -0.0103  Tot=              4.1019
 Quadrupole moment (field-independent basis, Debye-Ang):
   XX=            -21.1796   YY=            -17.6608   ZZ=            -17.7318
   XY=              0.0235   XZ=              0.1198   YZ=              0.0038

 Normal termination of Gaussian 09 at Wed Aug 26 22:51:38 2020.
