 Gaussian 09, Revision D.01,
 Gaussian 09:  ES64L-G09RevD.01 24-Apr-2013

 --------------------
 #p B2PLYPD3/Def2QZVP
 --------------------

 ------------
 cyanomethane
 ------------
 Symbolic Z-matrix:
 Charge =  0 Multiplicity = 1

                         Standard orientation:
 ---------------------------------------------------------------------
 Center     Atomic      Atomic             Coordinates (Angstroms)
 Number     Number       Type             X           Y           Z
 ---------------------------------------------------------------------
      1          6           0        1.174603    0.002367   -0.001187
      2          6           0       -0.281735    0.007410   -0.011162
      3          7           0       -1.437746   -0.006365    0.008070
      4          1           0        1.599695   -0.075286    1.005674
      5          1           0        1.529371    0.912332   -0.433465
      6          1           0        1.577947   -0.851153   -0.554600
 ---------------------------------------------------------------------

 SCF Done:  E(RB2PLYPD3) =  -132.534774466     A.U. after   11 cycles
 E2(B2PLYPD3) =    -0.1806202209D+00 E(B2PLYPD3) =    -0.13271539468672D+03

 The electronic state is 1-A.
 Alpha  occ. eigenvalues --  -14.84326 -10.66989 -10.66397  -1.04102  -0.89263
 Alpha  occ. eigenvalues --   -0.60239  -0.54350  -0.53129  -0.44881  -0.39126
 Alpha  occ. eigenvalues --   -0.39013
 Alpha virt. eigenvalues --    0.03758   0.07568   0.08080   0.10166   0.11346
 Alpha virt. eigenvalues --    0.11573   0.15450   0.16335   0.16741   0.20044
 Alpha virt. eigenvalues --    0.20145   0.25384   0.32744   0.34543   0.34943

 Mulliken charges:
               1
     1  C   -0.074869
     2  C    0.000383
     3  N   -0.206347
     4  H    0.091422
     5  H    0.096265
     6  H    0.093146
 Sum of Mulliken charges =   0.00000

 Dipole moment (field-independent basis, Debye):
    X=              4.1397    Y=              0.0102    Z=             -0.0065  Tot=              4.1397
 Quadrupole moment (field-independent basis, Debye-Ang):
   XX=            -20.8433   YY=            -17.7357   ZZ=            -17.8653
   XY=             -0.0735   XZ=              0.0945   YZ=             -0.0201

 Normal termination of Gaussian 09 at Wed Aug 26 23:59:23 2020.
