 Gaussian 09, Revision D.01,
 Gaussian 09:  ES64L-G09RevD.01 24-Apr-2013

 --------------------
 #p B2PLYPD3/Def2QZVP
 --------------------

 ------------
 cyanomethane
 ------------
 Symbolic Z-matrix:
 Charge =  0 Multiplicity = 1

                         Standard orientation:
 ---------------------------------------------------------------------
 Center     Atomic      Atomic             Coordinates (Angstroms)
 Number     Number       Type             X           Y           Z
 ---------------------------------------------------------------------
      1          6           0       -1.184948   -0.002448    0.004614
      2          6           0        0.275691   -0.001214    0.018801
      3          7           0        1.438203    0.003061   -0.015121
      4          1           0       -1.463267   -0.433269    0.883841
      5          1           0       -1.576036   -0.578659   -0.825454
      6          1           0       -1.572573    1.012476   -0.093026
 ---------------------------------------------------------------------

 SCF Done:  E(RB2PLYPD3) =  -132.530918116     A.U. after   12 cycles
 E2(B2PLYPD3) =    -0.1809234489D+00 E(B2PLYPD3) =    -0.13271184156526D+03

 The electronic state is 1-A.
 Alpha  occ. eigenvalues --  -14.84396 -10.66478 -10.66398  -1.03762  -0.89901
 Alpha  occ. eigenvalues --   -0.59776  -0.55626  -0.53641  -0.44773  -0.38970
 Alpha  occ. eigenvalues --   -0.38840
 Alpha virt. eigenvalues --    0.03815   0.07621   0.08615   0.10177   0.11131
 Alpha virt. eigenvalues --    0.11421   0.15385   0.15842   0.16654   0.20098
 Alpha virt. eigenvalues --    0.20189   0.25276   0.32687   0.34612   0.35341

 Mulliken charges:
               1
     1  C   -0.079038
     2  C   -0.001433
     3  N   -0.211107
     4  H    0.101789
     5  H    0.094057
     6  H    0.095732
 Sum of Mulliken charges =   0.00000

 Dipole moment (field-independent basis, Debye):
    X=             -4.1470    Y=             -0.0152    Z=              0.0246  Tot=              4.1471
 Quadrupole moment (field-independent basis, Debye-Ang):
   XX=            -20.9784   YY=            -17.7240   ZZ=            -17.7528
   XY=             -0.0285   XZ=              0.1592   YZ=             -0.0508

 Normal termination of Gaussian 09 at Wed Aug 26 10:12:34 2020.
