 Gaussian 09, Revision D.01,
 Gaussian 09:  ES64L-G09RevD.01 24-Apr-2013

 --------------------
 #p B2PLYPD3/Def2QZVP
 --------------------

 ------------
 cyanomethane
 ------------
 Symbolic Z-matrix:
 Charge =  0 Multiplicity = 1

                         Standard orientation:
 ---------------------------------------------------------------------
 Center     Atomic      Atomic             Coordinates (Angstroms)
 Number     Number       Type             X           Y           Z
 ---------------------------------------------------------------------
      1          6           0       -1.196206    0.019902   -0.000754
      2          6           0        0.258547   -0.071263   -0.001198
      3          7           0        1.447948    0.033029   -0.002895
      4          1           0       -1.455485   -0.139900    0.931579
      5          1           0       -1.555408   -0.707045   -0.589669
      6          1           0       -1.498788    0.923909   -0.309930
 ---------------------------------------------------------------------

 SCF Done:  E(RB2PLYPD3) =  -132.509392523     A.U. after   13 cycles
 E2(B2PLYPD3) =    -0.1830827646D+00 E(B2PLYPD3) =    -0.13269247528737D+03

 The electronic state is 1-A.
 Alpha  occ. eigenvalues --  -14.85211 -10.67260 -10.64319  -1.02645  -0.91738
 Alpha  occ. eigenvalues --   -0.60480  -0.56819  -0.56495  -0.44830  -0.38300
 Alpha  occ. eigenvalues --   -0.38255
 Alpha virt. eigenvalues --    0.03913   0.07681   0.08457   0.10113   0.10860
 Alpha virt. eigenvalues --    0.11101   0.15428   0.15554   0.16484   0.20243
 Alpha virt. eigenvalues --    0.20336   0.25592   0.32756   0.35785   0.35923

 Mulliken charges:
               1
     1  C   -0.060111
     2  C    0.004635
     3  N   -0.225837
     4  H    0.096083
     5  H    0.090719
     6  H    0.094510
 Sum of Mulliken charges =   0.00000

 Dipole moment (field-independent basis, Debye):
    X=             -4.1875    Y=             -0.0402    Z=              0.0188  Tot=              4.1877
 Quadrupole moment (field-independent basis, Debye-Ang):
   XX=            -20.8711   YY=            -17.6851   ZZ=            -17.7619
   XY=             -0.1034   XZ=              0.0409   YZ=             -0.0106

 Normal termination of Gaussian 09 at Wed Aug 26 21:51:45 2020.
