 Gaussian 09, Revision D.01,
 Gaussian 09:  ES64L-G09RevD.01 24-Apr-2013

 --------------------
 #p B2PLYPD3/Def2QZVP
 --------------------

 ------------
 cyanomethane
 ------------
 Symbolic Z-matrix:
 Charge =  0 Multiplicity = 1

                         Standard orientation:
 ---------------------------------------------------------------------
 Center     Atomic      Atomic             Coordinates (Angstroms)
 Number     Number       Type             X           Y           Z
 ---------------------------------------------------------------------
      1          6           0        1.179165    0.004388    0.000689
      2          6           0       -0.273434   -0.006311   -0.015031
      3          7           0       -1.429325    0.000350    0.005613
      4          1           0        1.488836    1.010086    0.033268
      5          1           0        1.566465   -0.484516   -0.852080
      6          1           0        1.515587   -0.516480    0.865573
 ---------------------------------------------------------------------

 SCF Done:  E(RB2PLYPD3) =  -132.534165525     A.U. after   11 cycles
 E2(B2PLYPD3) =    -0.1801761973D+00 E(B2PLYPD3) =    -0.13271434172275D+03

 The electronic state is 1-A.
 Alpha  occ. eigenvalues --  -14.84127 -10.66176 -10.66106  -1.04019  -0.90112
 Alpha  occ. eigenvalues --   -0.59811  -0.55243  -0.54540  -0.44707  -0.39060
 Alpha  occ. eigenvalues --   -0.38988
 Alpha virt. eigenvalues --    0.03917   0.08241   0.08413   0.10204   0.11318
 Alpha virt. eigenvalues --    0.11433   0.15458   0.16128   0.16279   0.20105
 Alpha virt. eigenvalues --    0.20141   0.25417   0.32978   0.34924   0.35244

 Mulliken charges:
               1
     1  C   -0.077446
     2  C   -0.003210
     3  N   -0.208762
     4  H    0.098813
     5  H    0.094991
     6  H    0.095613
 Sum of Mulliken charges =   0.00000

 Dipole moment (field-independent basis, Debye):
    X=              4.1344    Y=             -0.0048    Z=             -0.0029  Tot=              4.1344
 Quadrupole moment (field-independent basis, Debye-Ang):
   XX=            -21.0142   YY=            -17.6334   ZZ=            -17.7290
   XY=             -0.0552   XZ=              0.0041   YZ=              0.0051

 Normal termination of Gaussian 09 at Wed Aug 26 10:11:00 2020.
