 Gaussian 09, Revision D.01,
 Gaussian 09:  ES64L-G09RevD.01 24-Apr-2013

 --------------------
 #p B2PLYPD3/Def2QZVP
 --------------------

 ------------
 cyanomethane
 ------------
 Symbolic Z-matrix:
 Charge =  0 Multiplicity = 1

                         Standard orientation:
 ---------------------------------------------------------------------
 Center     Atomic      Atomic             Coordinates (Angstroms)
 Number     Number       Type             X           Y           Z
 ---------------------------------------------------------------------
      1          6           0       -1.180264    0.021839   -0.002223
      2          6           0        0.268975   -0.020136    0.010133
      3          7           0        1.436118    0.007608   -0.003531
      4          1           0       -1.549916   -0.073826    0.980048
      5          1           0       -1.524196   -0.898923   -0.545219
      6          1           0       -1.510981    0.909271   -0.457568
 ---------------------------------------------------------------------

 SCF Done:  E(RB2PLYPD3) =  -132.531384516     A.U. after   12 cycles
 E2(B2PLYPD3) =    -0.1814530312D+00 E(B2PLYPD3) =    -0.13271283754747D+03

 The electronic state is 1-A.
 Alpha  occ. eigenvalues --  -14.84464 -10.66711 -10.66517  -1.03580  -0.89817
 Alpha  occ. eigenvalues --   -0.59831  -0.55600  -0.53402  -0.44761  -0.38846
 Alpha  occ. eigenvalues --   -0.38526
 Alpha virt. eigenvalues --    0.03784   0.07693   0.08032   0.10123   0.11157
 Alpha virt. eigenvalues --    0.11479   0.15360   0.15765   0.16516   0.20114
 Alpha virt. eigenvalues --    0.20221   0.25499   0.32561   0.33996   0.35441

 Mulliken charges:
               1
     1  C   -0.083509
     2  C    0.000354
     3  N   -0.213823
     4  H    0.097225
     5  H    0.094781
     6  H    0.104971
 Sum of Mulliken charges =   0.00000

 Dipole moment (field-independent basis, Debye):
    X=             -4.1426    Y=             -0.0194    Z=              0.0276  Tot=              4.1427
 Quadrupole moment (field-independent basis, Debye-Ang):
   XX=            -21.0988   YY=            -17.6155   ZZ=            -17.8560
   XY=              0.0011   XZ=             -0.0654   YZ=             -0.0707

 Normal termination of Gaussian 09 at Wed Aug 26 11:39:12 2020.
