 Gaussian 09, Revision D.01,
 Gaussian 09:  ES64L-G09RevD.01 24-Apr-2013

 --------------------
 #p B2PLYPD3/Def2QZVP
 --------------------

 ------------
 cyanomethane
 ------------
 Symbolic Z-matrix:
 Charge =  0 Multiplicity = 1

                         Standard orientation:
 ---------------------------------------------------------------------
 Center     Atomic      Atomic             Coordinates (Angstroms)
 Number     Number       Type             X           Y           Z
 ---------------------------------------------------------------------
      1          6           0       -1.179922   -0.002009    0.024262
      2          6           0        0.283735    0.061484    0.030020
      3          7           0        1.416318   -0.042504   -0.026451
      4          1           0       -1.698090   -0.745055   -0.697749
      5          1           0       -1.410522    0.939713   -0.332575
      6          1           0       -1.428492   -0.253980    0.889787
 ---------------------------------------------------------------------

 SCF Done:  E(RB2PLYPD3) =  -132.503754957     A.U. after   12 cycles
 E2(B2PLYPD3) =    -0.1791049462D+00 E(B2PLYPD3) =    -0.13268285990278D+03

 The electronic state is 1-A.
 Alpha  occ. eigenvalues --  -14.83730 -10.65674 -10.65565  -1.04796  -0.90744
 Alpha  occ. eigenvalues --   -0.60236  -0.57792  -0.51877  -0.44694  -0.39817
 Alpha  occ. eigenvalues --   -0.39114
 Alpha virt. eigenvalues --    0.03420   0.07673   0.10010   0.10113   0.11175
 Alpha virt. eigenvalues --    0.11708   0.15213   0.15711   0.17414   0.19979
 Alpha virt. eigenvalues --    0.20197   0.25505   0.32447   0.34071   0.36453

 Mulliken charges:
               1
     1  C   -0.100682
     2  C   -0.003838
     3  N   -0.198452
     4  H    0.083914
     5  H    0.103288
     6  H    0.115770
 Sum of Mulliken charges =   0.00000

 Dipole moment (field-independent basis, Debye):
    X=             -4.0596    Y=              0.0844    Z=              0.0441  Tot=              4.0607
 Quadrupole moment (field-independent basis, Debye-Ang):
   XX=            -20.9394   YY=            -17.6243   ZZ=            -17.6342
   XY=              0.3919   XZ=              0.2779   YZ=             -0.1981

 Normal termination of Gaussian 09 at Wed Aug 26 23:44:48 2020.
