 Gaussian 09, Revision D.01,
 Gaussian 09:  ES64L-G09RevD.01 24-Apr-2013

 --------------------
 #p B2PLYPD3/Def2QZVP
 --------------------

 ------------
 cyanomethane
 ------------
 Symbolic Z-matrix:
 Charge =  0 Multiplicity = 1

                         Standard orientation:
 ---------------------------------------------------------------------
 Center     Atomic      Atomic             Coordinates (Angstroms)
 Number     Number       Type             X           Y           Z
 ---------------------------------------------------------------------
      1          6           0        1.174807   -0.009459   -0.014669
      2          6           0       -0.271420    0.007496    0.011829
      3          7           0       -1.433546   -0.001269   -0.003097
      4          1           0        1.559516    0.008694    1.016342
      5          1           0        1.546572    0.905117   -0.491247
      6          1           0        1.508411   -0.893149   -0.486379
 ---------------------------------------------------------------------

 SCF Done:  E(RB2PLYPD3) =  -132.533805092     A.U. after   11 cycles
 E2(B2PLYPD3) =    -0.1810719323D+00 E(B2PLYPD3) =    -0.13271487702477D+03

 The electronic state is 1-A.
 Alpha  occ. eigenvalues --  -14.84347 -10.66896 -10.66383  -1.03810  -0.89611
 Alpha  occ. eigenvalues --   -0.59822  -0.55191  -0.53284  -0.44782  -0.38937
 Alpha  occ. eigenvalues --   -0.38674
 Alpha virt. eigenvalues --    0.03781   0.07637   0.07991   0.10149   0.11255
 Alpha virt. eigenvalues --    0.11568   0.15409   0.16001   0.16484   0.20092
 Alpha virt. eigenvalues --    0.20187   0.25540   0.32735   0.34083   0.35232

 Mulliken charges:
               1
     1  C   -0.083047
     2  C   -0.000397
     3  N   -0.210719
     4  H    0.092818
     5  H    0.098221
     6  H    0.103124
 Sum of Mulliken charges =   0.00000

 Dipole moment (field-independent basis, Debye):
    X=              4.1360    Y=              0.0034    Z=              0.0223  Tot=              4.1360
 Quadrupole moment (field-independent basis, Debye-Ang):
   XX=            -21.0531   YY=            -17.6248   ZZ=            -17.8619
   XY=              0.0297   XZ=              0.0592   YZ=              0.0357

 Normal termination of Gaussian 09 at Wed Aug 26 09:42:07 2020.
