 Gaussian 09, Revision D.01,
 Gaussian 09:  ES64L-G09RevD.01 24-Apr-2013

 --------------------
 #p B2PLYPD3/Def2QZVP
 --------------------

 ------------
 cyanomethane
 ------------
 Symbolic Z-matrix:
 Charge =  0 Multiplicity = 1

                         Standard orientation:
 ---------------------------------------------------------------------
 Center     Atomic      Atomic             Coordinates (Angstroms)
 Number     Number       Type             X           Y           Z
 ---------------------------------------------------------------------
      1          6           0        1.165959   -0.004007   -0.002589
      2          6           0       -0.275980   -0.021125    0.002105
      3          7           0       -1.426672    0.014453   -0.004452
      4          1           0        1.600981    0.995429   -0.236010
      5          1           0        1.558010   -0.699246   -0.667518
      6          1           0        1.487836   -0.246559    0.937598
 ---------------------------------------------------------------------

 SCF Done:  E(RB2PLYPD3) =  -132.530606254     A.U. after   12 cycles
 E2(B2PLYPD3) =    -0.1798693103D+00 E(B2PLYPD3) =    -0.13271047556465D+03

 The electronic state is 1-A.
 Alpha  occ. eigenvalues --  -14.84108 -10.66108 -10.65937  -1.04317  -0.90248
 Alpha  occ. eigenvalues --   -0.60659  -0.55299  -0.53688  -0.44833  -0.39241
 Alpha  occ. eigenvalues --   -0.39083
 Alpha virt. eigenvalues --    0.03825   0.07773   0.08703   0.10173   0.11408
 Alpha virt. eigenvalues --    0.11609   0.15647   0.16010   0.17061   0.20075
 Alpha virt. eigenvalues --    0.20138   0.25668   0.33027   0.34664   0.35550

 Mulliken charges:
               1
     1  C   -0.067887
     2  C   -0.000295
     3  N   -0.205481
     4  H    0.088890
     5  H    0.092146
     6  H    0.092628
 Sum of Mulliken charges =   0.00000

 Dipole moment (field-independent basis, Debye):
    X=              4.1319    Y=             -0.0431    Z=              0.0352  Tot=              4.1323
 Quadrupole moment (field-independent basis, Debye-Ang):
   XX=            -20.7871   YY=            -17.6684   ZZ=            -17.7775
   XY=              0.0823   XZ=             -0.0203   YZ=              0.0275

 Normal termination of Gaussian 09 at Wed Aug 26 12:36:09 2020.
