 Gaussian 09, Revision D.01,
 Gaussian 09:  ES64L-G09RevD.01 24-Apr-2013

 --------------------
 #p B2PLYPD3/Def2QZVP
 --------------------

 ------------
 cyanomethane
 ------------
 Symbolic Z-matrix:
 Charge =  0 Multiplicity = 1

                         Standard orientation:
 ---------------------------------------------------------------------
 Center     Atomic      Atomic             Coordinates (Angstroms)
 Number     Number       Type             X           Y           Z
 ---------------------------------------------------------------------
      1          6           0        1.144405   -0.035222    0.028271
      2          6           0       -0.261748    0.036311   -0.040451
      3          7           0       -1.436863   -0.009843    0.012902
      4          1           0        1.660076    1.094253   -0.168702
      5          1           0        1.600095   -0.681073   -0.767325
      6          1           0        1.501926   -0.350812    0.918798
 ---------------------------------------------------------------------

 SCF Done:  E(RB2PLYPD3) =  -132.511990020     A.U. after   12 cycles
 E2(B2PLYPD3) =    -0.1833778949D+00 E(B2PLYPD3) =    -0.13269536791502D+03

 The electronic state is 1-A.
 Alpha  occ. eigenvalues --  -14.85046 -10.67750 -10.66953  -1.03548  -0.89534
 Alpha  occ. eigenvalues --   -0.61716  -0.54587  -0.50948  -0.45178  -0.38611
 Alpha  occ. eigenvalues --   -0.37949
 Alpha virt. eigenvalues --    0.03259   0.05686   0.07031   0.09904   0.11446
 Alpha virt. eigenvalues --    0.11837   0.15700   0.16220   0.16978   0.20151
 Alpha virt. eigenvalues --    0.20210   0.26365   0.30351   0.33512   0.35456

 Mulliken charges:
               1
     1  C   -0.082608
     2  C    0.013123
     3  N   -0.214132
     4  H    0.081344
     5  H    0.095100
     6  H    0.107173
 Sum of Mulliken charges =   0.00000

 Dipole moment (field-independent basis, Debye):
    X=              4.1023    Y=             -0.0551    Z=              0.0099  Tot=              4.1026
 Quadrupole moment (field-independent basis, Debye-Ang):
   XX=            -20.8798   YY=            -17.8985   ZZ=            -17.9465
   XY=             -0.1020   XZ=              0.0286   YZ=             -0.0129

 Normal termination of Gaussian 09 at Wed Aug 26 22:25:39 2020.
