 Gaussian 09, Revision D.01,
 Gaussian 09:  ES64L-G09RevD.01 24-Apr-2013

 --------------------
 #p B2PLYPD3/Def2QZVP
 --------------------

 ------------
 cyanomethane
 ------------
 Symbolic Z-matrix:
 Charge =  0 Multiplicity = 1

                         Standard orientation:
 ---------------------------------------------------------------------
 Center     Atomic      Atomic             Coordinates (Angstroms)
 Number     Number       Type             X           Y           Z
 ---------------------------------------------------------------------
      1          6           0       -1.142043    0.032112   -0.001603
      2          6           0        0.280844    0.043035    0.043032
      3          7           0        1.420335   -0.029482   -0.029643
      4          1           0       -1.701084   -0.574337   -0.796886
      5          1           0       -1.557673    0.877026   -0.042845
      6          1           0       -1.516395   -0.547198    0.798660
 ---------------------------------------------------------------------

 SCF Done:  E(RB2PLYPD3) =  -132.507244454     A.U. after   12 cycles
 E2(B2PLYPD3) =    -0.1797672173D+00 E(B2PLYPD3) =    -0.13268701167109D+03

 The electronic state is 1-A.
 Alpha  occ. eigenvalues --  -14.84145 -10.66071 -10.65279  -1.04833  -0.90869
 Alpha  occ. eigenvalues --   -0.62804  -0.57081  -0.50930  -0.45084  -0.39801
 Alpha  occ. eigenvalues --   -0.38749
 Alpha virt. eigenvalues --    0.03407   0.07159   0.09118   0.10015   0.11108
 Alpha virt. eigenvalues --    0.12289   0.15908   0.16506   0.18026   0.19881
 Alpha virt. eigenvalues --    0.20498   0.26112   0.32995   0.33982   0.36128

 Mulliken charges:
               1
     1  C   -0.058350
     2  C    0.011227
     3  N   -0.200320
     4  H    0.069638
     5  H    0.097292
     6  H    0.080514
 Sum of Mulliken charges =   0.00000

 Dipole moment (field-independent basis, Debye):
    X=             -4.1267    Y=              0.0001    Z=              0.0821  Tot=              4.1276
 Quadrupole moment (field-independent basis, Debye-Ang):
   XX=            -20.2872   YY=            -17.5838   ZZ=            -18.0857
   XY=              0.3330   XZ=              0.2134   YZ=             -0.1194

 Normal termination of Gaussian 09 at Wed Aug 26 21:00:22 2020.
