 Gaussian 09, Revision D.01,
 Gaussian 09:  ES64L-G09RevD.01 24-Apr-2013

 --------------------
 #p B2PLYPD3/Def2QZVP
 --------------------

 ------------
 cyanomethane
 ------------
 Symbolic Z-matrix:
 Charge =  0 Multiplicity = 1

                         Standard orientation:
 ---------------------------------------------------------------------
 Center     Atomic      Atomic             Coordinates (Angstroms)
 Number     Number       Type             X           Y           Z
 ---------------------------------------------------------------------
      1          6           0        1.164199    0.006458   -0.007424
      2          6           0       -0.269013   -0.019882    0.015417
      3          7           0       -1.434548    0.010750   -0.005706
      4          1           0        1.531310   -0.690648   -0.734872
      5          1           0        1.572914   -0.288351    0.958960
      6          1           0        1.566499    0.984295   -0.232109
 ---------------------------------------------------------------------

 SCF Done:  E(RB2PLYPD3) =  -132.533803650     A.U. after   11 cycles
 E2(B2PLYPD3) =    -0.1814175593D+00 E(B2PLYPD3) =    -0.13271522120957D+03

 The electronic state is 1-A.
 Alpha  occ. eigenvalues --  -14.84544 -10.66646 -10.66536  -1.03753  -0.89816
 Alpha  occ. eigenvalues --   -0.60685  -0.54343  -0.53763  -0.44917  -0.38765
 Alpha  occ. eigenvalues --   -0.38684
 Alpha virt. eigenvalues --    0.03792   0.07451   0.07743   0.10097   0.11414
 Alpha virt. eigenvalues --    0.11491   0.15600   0.16146   0.16729   0.20146
 Alpha virt. eigenvalues --    0.20174   0.25818   0.32912   0.34608   0.34914

 Mulliken charges:
               1
     1  C   -0.071594
     2  C    0.002398
     3  N   -0.211799
     4  H    0.094914
     5  H    0.091223
     6  H    0.094858
 Sum of Mulliken charges =   0.00000

 Dipole moment (field-independent basis, Debye):
    X=              4.1479    Y=             -0.0191    Z=              0.0081  Tot=              4.1479
 Quadrupole moment (field-independent basis, Debye-Ang):
   XX=            -20.8611   YY=            -17.7729   ZZ=            -17.8201
   XY=              0.0640   XZ=             -0.0001   YZ=              0.0181

 Normal termination of Gaussian 09 at Wed Aug 26 09:38:33 2020.
