 Gaussian 09, Revision D.01,
 Gaussian 09:  ES64L-G09RevD.01 24-Apr-2013

 --------------------
 #p B2PLYPD3/Def2QZVP
 --------------------

 ------------
 cyanomethane
 ------------
 Symbolic Z-matrix:
 Charge =  0 Multiplicity = 1

                         Standard orientation:
 ---------------------------------------------------------------------
 Center     Atomic      Atomic             Coordinates (Angstroms)
 Number     Number       Type             X           Y           Z
 ---------------------------------------------------------------------
      1          6           0        1.145234   -0.022997    0.009911
      2          6           0       -0.258366   -0.005855   -0.057062
      3          7           0       -1.432712    0.017050    0.024107
      4          1           0        1.725683    1.052765   -0.274792
      5          1           0        1.503498   -0.790492   -0.630384
      6          1           0        1.478597   -0.208505    1.019337
 ---------------------------------------------------------------------

 SCF Done:  E(RB2PLYPD3) =  -132.515192751     A.U. after   12 cycles
 E2(B2PLYPD3) =    -0.1833797598D+00 E(B2PLYPD3) =    -0.13269857251077D+03

 The electronic state is 1-A.
 Alpha  occ. eigenvalues --  -14.84935 -10.67774 -10.66818  -1.03493  -0.89644
 Alpha  occ. eigenvalues --   -0.60683  -0.55132  -0.51151  -0.45077  -0.38454
 Alpha  occ. eigenvalues --   -0.37958
 Alpha virt. eigenvalues --    0.03055   0.05625   0.07543   0.09972   0.11271
 Alpha virt. eigenvalues --    0.11944   0.15616   0.15995   0.16867   0.20073
 Alpha virt. eigenvalues --    0.20328   0.26337   0.30717   0.34012   0.34832

 Mulliken charges:
               1
     1  C   -0.086414
     2  C    0.007883
     3  N   -0.214742
     4  H    0.086814
     5  H    0.103751
     6  H    0.102707
 Sum of Mulliken charges =   0.00000

 Dipole moment (field-independent basis, Debye):
    X=              4.1089    Y=             -0.0847    Z=              0.0232  Tot=              4.1099
 Quadrupole moment (field-independent basis, Debye-Ang):
   XX=            -20.9718   YY=            -17.8205   ZZ=            -17.9394
   XY=              0.1530   XZ=              0.1692   YZ=              0.1051

 Normal termination of Gaussian 09 at Wed Aug 26 23:49:16 2020.
