 Gaussian 09, Revision D.01,
 Gaussian 09:  ES64L-G09RevD.01 24-Apr-2013

 --------------------
 #p B2PLYPD3/Def2QZVP
 --------------------

 ------------
 cyanomethane
 ------------
 Symbolic Z-matrix:
 Charge =  0 Multiplicity = 1

                         Standard orientation:
 ---------------------------------------------------------------------
 Center     Atomic      Atomic             Coordinates (Angstroms)
 Number     Number       Type             X           Y           Z
 ---------------------------------------------------------------------
      1          6           0        1.175693   -0.002216    0.006148
      2          6           0       -0.271351    0.015739    0.010503
      3          7           0       -1.430738   -0.004080   -0.004625
      4          1           0        1.530926   -0.370836    0.951501
      5          1           0        1.576988    1.009805   -0.207425
      6          1           0        1.481205   -0.691553   -0.811605
 ---------------------------------------------------------------------

 SCF Done:  E(RB2PLYPD3) =  -132.534018713     A.U. after   12 cycles
 E2(B2PLYPD3) =    -0.1810095864D+00 E(B2PLYPD3) =    -0.13271502829967D+03

 The electronic state is 1-A.
 Alpha  occ. eigenvalues --  -14.84228 -10.67353 -10.66273  -1.03883  -0.89307
 Alpha  occ. eigenvalues --   -0.59373  -0.54474  -0.53574  -0.44725  -0.38895
 Alpha  occ. eigenvalues --   -0.38719
 Alpha virt. eigenvalues --    0.03701   0.07602   0.07921   0.10157   0.11357
 Alpha virt. eigenvalues --    0.11576   0.15375   0.15907   0.16310   0.20106
 Alpha virt. eigenvalues --    0.20157   0.25498   0.32653   0.33955   0.34787

 Mulliken charges:
               1
     1  C   -0.094328
     2  C   -0.000654
     3  N   -0.209531
     4  H    0.103482
     5  H    0.100100
     6  H    0.100931
 Sum of Mulliken charges =   0.00000

 Dipole moment (field-independent basis, Debye):
    X=              4.1195    Y=             -0.0049    Z=              0.0021  Tot=              4.1195
 Quadrupole moment (field-independent basis, Debye-Ang):
   XX=            -21.1877   YY=            -17.7254   ZZ=            -17.7191
   XY=              0.0232   XZ=             -0.0092   YZ=             -0.0272

 Normal termination of Gaussian 09 at Wed Aug 26 23:55:11 2020.
