 Gaussian 09, Revision D.01,
 Gaussian 09:  ES64L-G09RevD.01 24-Apr-2013

 --------------------
 #p B2PLYPD3/Def2QZVP
 --------------------

 ------------
 cyanomethane
 ------------
 Symbolic Z-matrix:
 Charge =  0 Multiplicity = 1

                         Standard orientation:
 ---------------------------------------------------------------------
 Center     Atomic      Atomic             Coordinates (Angstroms)
 Number     Number       Type             X           Y           Z
 ---------------------------------------------------------------------
      1          6           0        1.183607    0.008391    0.012082
      2          6           0       -0.284623    0.013968   -0.005698
      3          7           0       -1.432617   -0.006887   -0.000806
      4          1           0        1.554673   -0.777364   -0.682545
      5          1           0        1.506453   -0.238520    0.971455
      6          1           0        1.573288    0.929939   -0.321574
 ---------------------------------------------------------------------

 SCF Done:  E(RB2PLYPD3) =  -132.533827563     A.U. after   11 cycles
 E2(B2PLYPD3) =    -0.1796767673D+00 E(B2PLYPD3) =    -0.13271350433010D+03

 The electronic state is 1-A.
 Alpha  occ. eigenvalues --  -14.83996 -10.66606 -10.66072  -1.04334  -0.89513
 Alpha  occ. eigenvalues --   -0.59674  -0.55413  -0.53272  -0.44729  -0.39433
 Alpha  occ. eigenvalues --   -0.39150
 Alpha virt. eigenvalues --    0.03827   0.08064   0.08611   0.10232   0.11252
 Alpha virt. eigenvalues --    0.11609   0.15376   0.16233   0.16533   0.20015
 Alpha virt. eigenvalues --    0.20107   0.25141   0.32738   0.34264   0.35660

 Mulliken charges:
               1
     1  C   -0.079183
     2  C   -0.003814
     3  N   -0.203399
     4  H    0.090218
     5  H    0.099260
     6  H    0.096919
 Sum of Mulliken charges =   0.00000

 Dipole moment (field-independent basis, Debye):
    X=              4.1285    Y=              0.0031    Z=              0.0016  Tot=              4.1285
 Quadrupole moment (field-independent basis, Debye-Ang):
   XX=            -20.9519   YY=            -17.7228   ZZ=            -17.7023
   XY=             -0.0360   XZ=             -0.0533   YZ=             -0.0690

 Normal termination of Gaussian 09 at Thu Aug 27 00:04:02 2020.
