 Gaussian 09, Revision D.01,
 Gaussian 09:  ES64L-G09RevD.01 24-Apr-2013

 --------------------
 #p B2PLYPD3/Def2QZVP
 --------------------

 ------------
 cyanomethane
 ------------
 Symbolic Z-matrix:
 Charge =  0 Multiplicity = 1

                         Standard orientation:
 ---------------------------------------------------------------------
 Center     Atomic      Atomic             Coordinates (Angstroms)
 Number     Number       Type             X           Y           Z
 ---------------------------------------------------------------------
      1          6           0        1.189531   -0.006886   -0.011494
      2          6           0       -0.272170   -0.014806   -0.016388
      3          7           0       -1.439511    0.011213    0.017516
      4          1           0        1.413721   -0.587562   -0.797290
      5          1           0        1.607729   -0.401732    0.934521
      6          1           0        1.550963    1.040955   -0.092546
 ---------------------------------------------------------------------

 SCF Done:  E(RB2PLYPD3) =  -132.525945367     A.U. after   12 cycles
 E2(B2PLYPD3) =    -0.1815704493D+00 E(B2PLYPD3) =    -0.13270751581596D+03

 The electronic state is 1-A.
 Alpha  occ. eigenvalues --  -14.84486 -10.66759 -10.66565  -1.03535  -0.89860
 Alpha  occ. eigenvalues --   -0.59265  -0.56343  -0.52964  -0.44721  -0.38839
 Alpha  occ. eigenvalues --   -0.38591
 Alpha virt. eigenvalues --    0.03706   0.07225   0.08751   0.10159   0.10962
 Alpha virt. eigenvalues --    0.11468   0.15205   0.15653   0.16538   0.20099
 Alpha virt. eigenvalues --    0.20242   0.25223   0.32439   0.33998   0.35426

 Mulliken charges:
               1
     1  C   -0.090091
     2  C   -0.001447
     3  N   -0.213829
     4  H    0.110011
     5  H    0.096199
     6  H    0.099156
 Sum of Mulliken charges =   0.00000

 Dipole moment (field-independent basis, Debye):
    X=              4.1413    Y=             -0.0158    Z=             -0.0185  Tot=              4.1414
 Quadrupole moment (field-independent basis, Debye-Ang):
   XX=            -21.1286   YY=            -17.7135   ZZ=            -17.7589
   XY=              0.1074   XZ=              0.2461   YZ=              0.0991

 Normal termination of Gaussian 09 at Wed Aug 26 10:55:26 2020.
