 Gaussian 09, Revision D.01,
 Gaussian 09:  ES64L-G09RevD.01 24-Apr-2013

 --------------------
 #p B2PLYPD3/Def2QZVP
 --------------------

 ------------
 cyanomethane
 ------------
 Symbolic Z-matrix:
 Charge =  0 Multiplicity = 1

                         Standard orientation:
 ---------------------------------------------------------------------
 Center     Atomic      Atomic             Coordinates (Angstroms)
 Number     Number       Type             X           Y           Z
 ---------------------------------------------------------------------
      1          6           0       -1.155759    0.031108    0.018445
      2          6           0        0.285068   -0.042373   -0.063074
      3          7           0        1.414197    0.009722    0.023764
      4          1           0       -1.490632    0.980890   -0.378016
      5          1           0       -1.467090   -0.125324    1.040243
      6          1           0       -1.717513   -0.856028   -0.560804
 ---------------------------------------------------------------------

 SCF Done:  E(RB2PLYPD3) =  -132.527437672     A.U. after   12 cycles
 E2(B2PLYPD3) =    -0.1793109604D+00 E(B2PLYPD3) =    -0.13270674863231D+03

 The electronic state is 1-A.
 Alpha  occ. eigenvalues --  -14.83668 -10.67766 -10.65616  -1.05083  -0.88738
 Alpha  occ. eigenvalues --   -0.59559  -0.54890  -0.51470  -0.44811  -0.39690
 Alpha  occ. eigenvalues --   -0.39156
 Alpha virt. eigenvalues --    0.03578   0.06959   0.08267   0.10162   0.11635
 Alpha virt. eigenvalues --    0.12116   0.15419   0.16380   0.16802   0.19902
 Alpha virt. eigenvalues --    0.19982   0.25969   0.31465   0.34625   0.35061

 Mulliken charges:
               1
     1  C   -0.094173
     2  C    0.000195
     3  N   -0.194051
     4  H    0.104255
     5  H    0.101356
     6  H    0.082417
 Sum of Mulliken charges =   0.00000

 Dipole moment (field-independent basis, Debye):
    X=             -4.0397    Y=             -0.0028    Z=              0.0084  Tot=              4.0397
 Quadrupole moment (field-independent basis, Debye-Ang):
   XX=            -21.0110   YY=            -17.6401   ZZ=            -17.8244
   XY=              0.0731   XZ=             -0.1262   YZ=             -0.1501

 Normal termination of Gaussian 09 at Wed Aug 26 21:05:02 2020.
