 Gaussian 09, Revision D.01,
 Gaussian 09:  ES64L-G09RevD.01 24-Apr-2013

 --------------------
 #p B2PLYPD3/Def2QZVP
 --------------------

 ------------
 cyanomethane
 ------------
 Symbolic Z-matrix:
 Charge =  0 Multiplicity = 1

                         Standard orientation:
 ---------------------------------------------------------------------
 Center     Atomic      Atomic             Coordinates (Angstroms)
 Number     Number       Type             X           Y           Z
 ---------------------------------------------------------------------
      1          6           0       -1.158097    0.000818   -0.013134
      2          6           0        0.284921    0.036779    0.006499
      3          7           0        1.427790   -0.014476    0.000437
      4          1           0       -1.600099   -0.278667    0.966270
      5          1           0       -1.510014   -0.770795   -0.665060
      6          1           0       -1.645361    0.925218   -0.264460
 ---------------------------------------------------------------------

 SCF Done:  E(RB2PLYPD3) =  -132.533743735     A.U. after   11 cycles
 E2(B2PLYPD3) =    -0.1796779687D+00 E(B2PLYPD3) =    -0.13271342170374D+03

 The electronic state is 1-A.
 Alpha  occ. eigenvalues --  -14.84051 -10.66732 -10.66077  -1.04688  -0.89400
 Alpha  occ. eigenvalues --   -0.61018  -0.54328  -0.52586  -0.44943  -0.39492
 Alpha  occ. eigenvalues --   -0.39190
 Alpha virt. eigenvalues --    0.03763   0.07682   0.08046   0.10176   0.11513
 Alpha virt. eigenvalues --    0.11890   0.15604   0.16641   0.17126   0.19976
 Alpha virt. eigenvalues --    0.20106   0.25698   0.32982   0.34349   0.35374

 Mulliken charges:
               1
     1  C   -0.065713
     2  C    0.002443
     3  N   -0.200135
     4  H    0.082290
     5  H    0.091424
     6  H    0.089691
 Sum of Mulliken charges =   0.00000

 Dipole moment (field-independent basis, Debye):
    X=             -4.1233    Y=             -0.0010    Z=              0.0087  Tot=              4.1233
 Quadrupole moment (field-independent basis, Debye-Ang):
   XX=            -20.6343   YY=            -17.7070   ZZ=            -17.9184
   XY=              0.0568   XZ=             -0.0715   YZ=              0.0275

 Normal termination of Gaussian 09 at Wed Aug 26 10:26:24 2020.
