 Gaussian 09, Revision D.01,
 Gaussian 09:  ES64L-G09RevD.01 24-Apr-2013

 --------------------
 #p B2PLYPD3/Def2QZVP
 --------------------

 ------------
 cyanomethane
 ------------
 Symbolic Z-matrix:
 Charge =  0 Multiplicity = 1

                         Standard orientation:
 ---------------------------------------------------------------------
 Center     Atomic      Atomic             Coordinates (Angstroms)
 Number     Number       Type             X           Y           Z
 ---------------------------------------------------------------------
      1          6           0       -1.169794   -0.001139   -0.005593
      2          6           0        0.272471    0.008014   -0.010958
      3          7           0        1.433282   -0.002719    0.002589
      4          1           0       -1.569609   -0.788373   -0.646848
      5          1           0       -1.583410    0.973510   -0.303555
      6          1           0       -1.496020   -0.207356    1.031583
 ---------------------------------------------------------------------

 SCF Done:  E(RB2PLYPD3) =  -132.534378104     A.U. after   12 cycles
 E2(B2PLYPD3) =    -0.1811547065D+00 E(B2PLYPD3) =    -0.13271553281094D+03

 The electronic state is 1-A.
 Alpha  occ. eigenvalues --  -14.84351 -10.67292 -10.66391  -1.03895  -0.89301
 Alpha  occ. eigenvalues --   -0.59942  -0.54035  -0.53516  -0.44828  -0.38891
 Alpha  occ. eigenvalues --   -0.38722
 Alpha virt. eigenvalues --    0.03713   0.07573   0.07633   0.10142   0.11401
 Alpha virt. eigenvalues --    0.11597   0.15464   0.15999   0.16628   0.20109
 Alpha virt. eigenvalues --    0.20157   0.25604   0.32722   0.34077   0.34797

 Mulliken charges:
               1
     1  C   -0.085804
     2  C    0.000927
     3  N   -0.209322
     4  H    0.099015
     5  H    0.098021
     6  H    0.097164
 Sum of Mulliken charges =   0.00000

 Dipole moment (field-independent basis, Debye):
    X=             -4.1313    Y=             -0.0021    Z=              0.0117  Tot=              4.1313
 Quadrupole moment (field-independent basis, Debye-Ang):
   XX=            -21.0275   YY=            -17.7337   ZZ=            -17.8121
   XY=              0.0048   XZ=              0.0139   YZ=              0.0129

 Normal termination of Gaussian 09 at Thu Aug 27 00:05:11 2020.
