 Gaussian 09, Revision D.01,
 Gaussian 09:  ES64L-G09RevD.01 24-Apr-2013

 --------------------
 #p B2PLYPD3/Def2QZVP
 --------------------

 ------------
 cyanomethane
 ------------
 Symbolic Z-matrix:
 Charge =  0 Multiplicity = 1

                         Standard orientation:
 ---------------------------------------------------------------------
 Center     Atomic      Atomic             Coordinates (Angstroms)
 Number     Number       Type             X           Y           Z
 ---------------------------------------------------------------------
      1          6           0        1.185608    0.013195    0.000689
      2          6           0       -0.280705   -0.020093   -0.004309
      3          7           0       -1.436482    0.008924    0.000216
      4          1           0        1.545591    1.001712   -0.264059
      5          1           0        1.563203   -0.748896   -0.719536
      6          1           0        1.517165   -0.273893    1.003799
 ---------------------------------------------------------------------

 SCF Done:  E(RB2PLYPD3) =  -132.534632776     A.U. after   12 cycles
 E2(B2PLYPD3) =    -0.1807149988D+00 E(B2PLYPD3) =    -0.13271534777457D+03

 The electronic state is 1-A.
 Alpha  occ. eigenvalues --  -14.84195 -10.67516 -10.66287  -1.03996  -0.88922
 Alpha  occ. eigenvalues --   -0.59142  -0.54312  -0.53406  -0.44723  -0.39082
 Alpha  occ. eigenvalues --   -0.38927
 Alpha virt. eigenvalues --    0.03698   0.07801   0.07984   0.10175   0.11340
 Alpha virt. eigenvalues --    0.11475   0.15267   0.15871   0.16497   0.20075
 Alpha virt. eigenvalues --    0.20116   0.25191   0.32497   0.34112   0.34810

 Mulliken charges:
               1
     1  C   -0.093233
     2  C   -0.001820
     3  N   -0.206983
     4  H    0.103815
     5  H    0.097796
     6  H    0.100426
 Sum of Mulliken charges =   0.00000

 Dipole moment (field-independent basis, Debye):
    X=              4.1234    Y=             -0.0183    Z=              0.0078  Tot=              4.1234
 Quadrupole moment (field-independent basis, Debye-Ang):
   XX=            -21.1429   YY=            -17.6905   ZZ=            -17.7885
   XY=              0.0270   XZ=             -0.0148   YZ=             -0.0300

 Normal termination of Gaussian 09 at Thu Aug 27 00:09:09 2020.
