 Gaussian 09, Revision D.01,
 Gaussian 09:  ES64L-G09RevD.01 24-Apr-2013

 --------------------
 #p B2PLYPD3/Def2QZVP
 --------------------

 ------------
 cyanomethane
 ------------
 Symbolic Z-matrix:
 Charge =  0 Multiplicity = 1

                         Standard orientation:
 ---------------------------------------------------------------------
 Center     Atomic      Atomic             Coordinates (Angstroms)
 Number     Number       Type             X           Y           Z
 ---------------------------------------------------------------------
      1          6           0       -1.184221   -0.022762    0.001735
      2          6           0        0.289343    0.047660   -0.001155
      3          7           0        1.421567   -0.020257   -0.000685
      4          1           0       -1.506199   -0.160213    0.966875
      5          1           0       -1.509569   -0.802135   -0.613159
      6          1           0       -1.565935    0.954755   -0.352405
 ---------------------------------------------------------------------

 SCF Done:  E(RB2PLYPD3) =  -132.532152242     A.U. after   11 cycles
 E2(B2PLYPD3) =    -0.1784174604D+00 E(B2PLYPD3) =    -0.13271056970216D+03

 The electronic state is 1-A.
 Alpha  occ. eigenvalues --  -14.83544 -10.66298 -10.65573  -1.04860  -0.89628
 Alpha  occ. eigenvalues --   -0.59312  -0.55411  -0.53832  -0.44619  -0.39761
 Alpha  occ. eigenvalues --   -0.39544
 Alpha virt. eigenvalues --    0.03891   0.08493   0.08979   0.10199   0.11450
 Alpha virt. eigenvalues --    0.11619   0.15421   0.15953   0.16740   0.19958
 Alpha virt. eigenvalues --    0.20030   0.25226   0.32786   0.34710   0.35636

 Mulliken charges:
               1
     1  C   -0.083132
     2  C   -0.007801
     3  N   -0.196274
     4  H    0.096797
     5  H    0.099457
     6  H    0.090953
 Sum of Mulliken charges =   0.00000

 Dipole moment (field-independent basis, Debye):
    X=             -4.0909    Y=              0.0236    Z=              0.0217  Tot=              4.0911
 Quadrupole moment (field-independent basis, Debye-Ang):
   XX=            -21.0139   YY=            -17.5649   ZZ=            -17.6816
   XY=              0.0916   XZ=             -0.0275   YZ=              0.0427

 Normal termination of Gaussian 09 at Wed Aug 26 12:02:13 2020.
