 Gaussian 09, Revision D.01,
 Gaussian 09:  ES64L-G09RevD.01 24-Apr-2013

 --------------------
 #p B2PLYPD3/Def2QZVP
 --------------------

 ------------
 cyanomethane
 ------------
 Symbolic Z-matrix:
 Charge =  0 Multiplicity = 1

                         Standard orientation:
 ---------------------------------------------------------------------
 Center     Atomic      Atomic             Coordinates (Angstroms)
 Number     Number       Type             X           Y           Z
 ---------------------------------------------------------------------
      1          6           0        1.180407   -0.003036   -0.004722
      2          6           0       -0.275915    0.004069    0.013165
      3          7           0       -1.440214    0.001429   -0.003718
      4          1           0        1.563506   -0.481377    0.877040
      5          1           0        1.594718    1.008440   -0.043839
      6          1           0        1.496328   -0.543260   -0.857831
 ---------------------------------------------------------------------

 SCF Done:  E(RB2PLYPD3) =  -132.534125969     A.U. after   11 cycles
 E2(B2PLYPD3) =    -0.1811490672D+00 E(B2PLYPD3) =    -0.13271527503638D+03

 The electronic state is 1-A.
 Alpha  occ. eigenvalues --  -14.84480 -10.66719 -10.66556  -1.03735  -0.89600
 Alpha  occ. eigenvalues --   -0.60044  -0.54642  -0.53823  -0.44834  -0.38881
 Alpha  occ. eigenvalues --   -0.38845
 Alpha virt. eigenvalues --    0.03814   0.07683   0.08060   0.10182   0.11307
 Alpha virt. eigenvalues --    0.11350   0.15407   0.16147   0.16520   0.20130
 Alpha virt. eigenvalues --    0.20148   0.25357   0.32656   0.34740   0.35003

 Mulliken charges:
               1
     1  C   -0.076455
     2  C    0.000052
     3  N   -0.211134
     4  H    0.094912
     5  H    0.094119
     6  H    0.098505
 Sum of Mulliken charges =   0.00000

 Dipole moment (field-independent basis, Debye):
    X=              4.1524    Y=             -0.0129    Z=              0.0020  Tot=              4.1525
 Quadrupole moment (field-independent basis, Debye-Ang):
   XX=            -20.9307   YY=            -17.7754   ZZ=            -17.7817
   XY=              0.0405   XZ=              0.0225   YZ=              0.0187

 Normal termination of Gaussian 09 at Thu Aug 27 00:05:51 2020.
