 Gaussian 09, Revision D.01,
 Gaussian 09:  ES64L-G09RevD.01 24-Apr-2013

 --------------------
 #p B2PLYPD3/Def2QZVP
 --------------------

 ------------
 cyanomethane
 ------------
 Symbolic Z-matrix:
 Charge =  0 Multiplicity = 1

                         Standard orientation:
 ---------------------------------------------------------------------
 Center     Atomic      Atomic             Coordinates (Angstroms)
 Number     Number       Type             X           Y           Z
 ---------------------------------------------------------------------
      1          6           0       -1.175735    0.001949   -0.004498
      2          6           0        0.275593    0.016486    0.004866
      3          7           0        1.440370   -0.008686   -0.003993
      4          1           0       -1.563974    1.036199   -0.034445
      5          1           0       -1.536391   -0.505346    0.929003
      6          1           0       -1.581371   -0.580662   -0.868815
 ---------------------------------------------------------------------

 SCF Done:  E(RB2PLYPD3) =  -132.532596620     A.U. after   12 cycles
 E2(B2PLYPD3) =    -0.1817524637D+00 E(B2PLYPD3) =    -0.13271434908404D+03

 The electronic state is 1-A.
 Alpha  occ. eigenvalues --  -14.84521 -10.67884 -10.66597  -1.03725  -0.88790
 Alpha  occ. eigenvalues --   -0.59636  -0.53752  -0.52974  -0.44861  -0.38798
 Alpha  occ. eigenvalues --   -0.38666
 Alpha virt. eigenvalues --    0.03597   0.07206   0.07513   0.10128   0.11334
 Alpha virt. eigenvalues --    0.11540   0.15359   0.16056   0.16513   0.20098
 Alpha virt. eigenvalues --    0.20167   0.25445   0.32440   0.33901   0.34447

 Mulliken charges:
               1
     1  C   -0.091023
     2  C    0.002042
     3  N   -0.210109
     4  H    0.101179
     5  H    0.098520
     6  H    0.099392
 Sum of Mulliken charges =   0.00000

 Dipole moment (field-independent basis, Debye):
    X=             -4.1327    Y=              0.0031    Z=              0.0105  Tot=              4.1327
 Quadrupole moment (field-independent basis, Debye-Ang):
   XX=            -21.0719   YY=            -17.7596   ZZ=            -17.8693
   XY=              0.0666   XZ=              0.0422   YZ=              0.0031

 Normal termination of Gaussian 09 at Thu Aug 27 00:11:49 2020.
