 Gaussian 09, Revision D.01,
 Gaussian 09:  ES64L-G09RevD.01 24-Apr-2013

 --------------------
 #p B2PLYPD3/Def2QZVP
 --------------------

 ------------
 cyanomethane
 ------------
 Symbolic Z-matrix:
 Charge =  0 Multiplicity = 1

                         Standard orientation:
 ---------------------------------------------------------------------
 Center     Atomic      Atomic             Coordinates (Angstroms)
 Number     Number       Type             X           Y           Z
 ---------------------------------------------------------------------
      1          6           0       -1.182648    0.002240    0.003015
      2          6           0        0.275082   -0.002927    0.014159
      3          7           0        1.436317    0.004198   -0.008897
      4          1           0       -1.512194   -0.220663    0.966313
      5          1           0       -1.518483   -0.784416   -0.680441
      6          1           0       -1.578146    0.979816   -0.326642
 ---------------------------------------------------------------------

 SCF Done:  E(RB2PLYPD3) =  -132.533364069     A.U. after   12 cycles
 E2(B2PLYPD3) =    -0.1809498737D+00 E(B2PLYPD3) =    -0.13271431394239D+03

 The electronic state is 1-A.
 Alpha  occ. eigenvalues --  -14.84328 -10.66899 -10.66396  -1.03807  -0.89535
 Alpha  occ. eigenvalues --   -0.59563  -0.54774  -0.53829  -0.44751  -0.38935
 Alpha  occ. eigenvalues --   -0.38828
 Alpha virt. eigenvalues --    0.03757   0.07643   0.08309   0.10175   0.11266
 Alpha virt. eigenvalues --    0.11417   0.15370   0.15849   0.16513   0.20119
 Alpha virt. eigenvalues --    0.20150   0.25319   0.32647   0.34401   0.34947

 Mulliken charges:
               1
     1  C   -0.085629
     2  C   -0.001400
     3  N   -0.210260
     4  H    0.100619
     5  H    0.098005
     6  H    0.098665
 Sum of Mulliken charges =   0.00000

 Dipole moment (field-independent basis, Debye):
    X=             -4.1370    Y=             -0.0204    Z=              0.0242  Tot=              4.1371
 Quadrupole moment (field-independent basis, Debye-Ang):
   XX=            -21.0733   YY=            -17.6893   ZZ=            -17.7803
   XY=             -0.0381   XZ=              0.0402   YZ=             -0.0164

 Normal termination of Gaussian 09 at Thu Aug 27 00:00:27 2020.
