 Gaussian 09, Revision D.01,
 Gaussian 09:  ES64L-G09RevD.01 24-Apr-2013

 --------------------
 #p B2PLYPD3/Def2QZVP
 --------------------

 ------------
 cyanomethane
 ------------
 Symbolic Z-matrix:
 Charge =  0 Multiplicity = 1

                         Standard orientation:
 ---------------------------------------------------------------------
 Center     Atomic      Atomic             Coordinates (Angstroms)
 Number     Number       Type             X           Y           Z
 ---------------------------------------------------------------------
      1          6           0        1.175029   -0.003512    0.002846
      2          6           0       -0.276572    0.027368   -0.000869
      3          7           0       -1.441493   -0.012677   -0.000204
      4          1           0        1.584661    1.009575   -0.186154
      5          1           0        1.558819   -0.693673   -0.782965
      6          1           0        1.556226   -0.370300    0.958685
 ---------------------------------------------------------------------

 SCF Done:  E(RB2PLYPD3) =  -132.533448821     A.U. after   11 cycles
 E2(B2PLYPD3) =    -0.1816769579D+00 E(B2PLYPD3) =    -0.13271512577918D+03

 The electronic state is 1-A.
 Alpha  occ. eigenvalues --  -14.84574 -10.67576 -10.66646  -1.03729  -0.88956
 Alpha  occ. eigenvalues --   -0.59960  -0.53705  -0.53222  -0.44901  -0.38808
 Alpha  occ. eigenvalues --   -0.38735
 Alpha virt. eigenvalues --    0.03648   0.07326   0.07519   0.10124   0.11328
 Alpha virt. eigenvalues --    0.11499   0.15409   0.16305   0.16443   0.20087
 Alpha virt. eigenvalues --    0.20168   0.25477   0.32507   0.34217   0.34555

 Mulliken charges:
               1
     1  C   -0.083972
     2  C    0.002282
     3  N   -0.210270
     4  H    0.097049
     5  H    0.096700
     6  H    0.098211
 Sum of Mulliken charges =   0.00000

 Dipole moment (field-independent basis, Debye):
    X=              4.1392    Y=              0.0046    Z=              0.0057  Tot=              4.1392
 Quadrupole moment (field-independent basis, Debye-Ang):
   XX=            -20.9742   YY=            -17.7822   ZZ=            -17.8722
   XY=             -0.0760   XZ=              0.0040   YZ=             -0.0159

 Normal termination of Gaussian 09 at Thu Aug 27 00:06:46 2020.
