 Gaussian 09, Revision D.01,
 Gaussian 09:  ES64L-G09RevD.01 24-Apr-2013

 --------------------
 #p B2PLYPD3/Def2QZVP
 --------------------

 ------------
 cyanomethane
 ------------
 Symbolic Z-matrix:
 Charge =  0 Multiplicity = 1

                         Standard orientation:
 ---------------------------------------------------------------------
 Center     Atomic      Atomic             Coordinates (Angstroms)
 Number     Number       Type             X           Y           Z
 ---------------------------------------------------------------------
      1          6           0       -1.175031    0.011385    0.004784
      2          6           0        0.276480   -0.001904    0.023604
      3          7           0        1.436234   -0.002393   -0.011501
      4          1           0       -1.523363    1.014288   -0.121992
      5          1           0       -1.583826   -0.447138    0.893042
      6          1           0       -1.555140   -0.607288   -0.860873
 ---------------------------------------------------------------------

 SCF Done:  E(RB2PLYPD3) =  -132.533618356     A.U. after   11 cycles
 E2(B2PLYPD3) =    -0.1810368656D+00 E(B2PLYPD3) =    -0.13271465522117D+03

 The electronic state is 1-A.
 Alpha  occ. eigenvalues --  -14.84369 -10.67190 -10.66425  -1.03914  -0.89267
 Alpha  occ. eigenvalues --   -0.59915  -0.54821  -0.52857  -0.44836  -0.39033
 Alpha  occ. eigenvalues --   -0.38751
 Alpha virt. eigenvalues --    0.03691   0.07454   0.07996   0.10160   0.11252
 Alpha virt. eigenvalues --    0.11616   0.15420   0.16257   0.16445   0.20062
 Alpha virt. eigenvalues --    0.20163   0.25459   0.32653   0.33888   0.35200

 Mulliken charges:
               1
     1  C   -0.082621
     2  C    0.000362
     3  N   -0.208696
     4  H    0.101237
     5  H    0.097195
     6  H    0.092523
 Sum of Mulliken charges =   0.00000

 Dipole moment (field-independent basis, Debye):
    X=             -4.1339    Y=             -0.0030    Z=              0.0125  Tot=              4.1339
 Quadrupole moment (field-independent basis, Debye-Ang):
   XX=            -20.9875   YY=            -17.7109   ZZ=            -17.8485
   XY=              0.0734   XZ=              0.0516   YZ=             -0.0538

 Normal termination of Gaussian 09 at Wed Aug 26 10:02:15 2020.
