 Gaussian 09, Revision D.01,
 Gaussian 09:  ES64L-G09RevD.01 24-Apr-2013

 --------------------
 #p B2PLYPD3/Def2QZVP
 --------------------

 ------------
 cyanomethane
 ------------
 Symbolic Z-matrix:
 Charge =  0 Multiplicity = 1

                         Standard orientation:
 ---------------------------------------------------------------------
 Center     Atomic      Atomic             Coordinates (Angstroms)
 Number     Number       Type             X           Y           Z
 ---------------------------------------------------------------------
      1          6           0        1.211270    0.042250    0.000303
      2          6           0       -0.303278   -0.047609    0.017970
      3          7           0       -1.436575    0.022075   -0.011701
      4          1           0        1.551140    1.005878   -0.190566
      5          1           0        1.551278   -0.727849   -0.805468
      6          1           0        1.505657   -0.400401    0.968302
 ---------------------------------------------------------------------

 SCF Done:  E(RB2PLYPD3) =  -132.526102870     A.U. after   12 cycles
 E2(B2PLYPD3) =    -0.1793249807D+00 E(B2PLYPD3) =    -0.13270542785103D+03

 The electronic state is 1-A.
 Alpha  occ. eigenvalues --  -14.83599 -10.68151 -10.65778  -1.04685  -0.88024
 Alpha  occ. eigenvalues --   -0.58360  -0.54900  -0.51953  -0.44514  -0.39842
 Alpha  occ. eigenvalues --   -0.39340
 Alpha virt. eigenvalues --    0.03553   0.08075   0.08688   0.10097   0.11195
 Alpha virt. eigenvalues --    0.11732   0.14898   0.15296   0.17057   0.19882
 Alpha virt. eigenvalues --    0.20079   0.24534   0.31892   0.33104   0.35254

 Mulliken charges:
               1
     1  C   -0.107265
     2  C   -0.007146
     3  N   -0.195706
     4  H    0.113537
     5  H    0.094687
     6  H    0.101893
 Sum of Mulliken charges =   0.00000

 Dipole moment (field-independent basis, Debye):
    X=              4.0966    Y=             -0.0490    Z=              0.0310  Tot=              4.0970
 Quadrupole moment (field-independent basis, Debye-Ang):
   XX=            -21.2887   YY=            -17.5271   ZZ=            -17.8341
   XY=              0.1017   XZ=             -0.0796   YZ=             -0.0865

 Normal termination of Gaussian 09 at Wed Aug 26 18:43:02 2020.
