 Gaussian 09, Revision D.01,
 Gaussian 09:  ES64L-G09RevD.01 24-Apr-2013

 --------------------
 #p B2PLYPD3/Def2QZVP
 --------------------

 ------------
 cyanomethane
 ------------
 Symbolic Z-matrix:
 Charge =  0 Multiplicity = 1

                         Standard orientation:
 ---------------------------------------------------------------------
 Center     Atomic      Atomic             Coordinates (Angstroms)
 Number     Number       Type             X           Y           Z
 ---------------------------------------------------------------------
      1          6           0       -1.176330   -0.033743   -0.001566
      2          6           0        0.301831    0.089458   -0.003325
      3          7           0        1.432498   -0.042546    0.001176
      4          1           0       -1.578124   -0.159818    0.920915
      5          1           0       -1.584061   -0.762895   -0.573898
      6          1           0       -1.618312    0.886246   -0.325900
 ---------------------------------------------------------------------

 SCF Done:  E(RB2PLYPD3) =  -132.523520132     A.U. after   12 cycles
 E2(B2PLYPD3) =    -0.1788366842D+00 E(B2PLYPD3) =    -0.13270235681664D+03

 The electronic state is 1-A.
 Alpha  occ. eigenvalues --  -14.84058 -10.66119 -10.65408  -1.04951  -0.89962
 Alpha  occ. eigenvalues --   -0.61320  -0.54765  -0.53370  -0.45015  -0.39966
 Alpha  occ. eigenvalues --   -0.39692
 Alpha virt. eigenvalues --    0.03837   0.08227   0.08757   0.10056   0.11489
 Alpha virt. eigenvalues --    0.11526   0.15643   0.16216   0.17953   0.19850
 Alpha virt. eigenvalues --    0.20190   0.25572   0.33076   0.35130   0.36034

 Mulliken charges:
               1
     1  C   -0.046812
     2  C    0.007359
     3  N   -0.196395
     4  H    0.078947
     5  H    0.083659
     6  H    0.073242
 Sum of Mulliken charges =   0.00000

 Dipole moment (field-independent basis, Debye):
    X=             -4.1068    Y=              0.0695    Z=              0.0214  Tot=              4.1074
 Quadrupole moment (field-independent basis, Debye-Ang):
   XX=            -20.3823   YY=            -17.7293   ZZ=            -17.8456
   XY=              0.2157   XZ=             -0.0523   YZ=              0.0490

 Normal termination of Gaussian 09 at Wed Aug 26 21:36:38 2020.
