 Gaussian 09, Revision D.01,
 Gaussian 09:  ES64L-G09RevD.01 24-Apr-2013

 --------------------
 #p B2PLYPD3/Def2QZVP
 --------------------

 ------------
 cyanomethane
 ------------
 Symbolic Z-matrix:
 Charge =  0 Multiplicity = 1

                         Standard orientation:
 ---------------------------------------------------------------------
 Center     Atomic      Atomic             Coordinates (Angstroms)
 Number     Number       Type             X           Y           Z
 ---------------------------------------------------------------------
      1          6           0        1.187415   -0.006601   -0.002441
      2          6           0       -0.275375    0.013580   -0.002333
      3          7           0       -1.439023   -0.008209   -0.000193
      4          1           0        1.509850    1.004377   -0.030168
      5          1           0        1.566527   -0.529602   -0.823858
      6          1           0        1.524538   -0.459186    0.884028
 ---------------------------------------------------------------------

 SCF Done:  E(RB2PLYPD3) =  -132.532572657     A.U. after   11 cycles
 E2(B2PLYPD3) =    -0.1808147410D+00 E(B2PLYPD3) =    -0.13271338739832D+03

 The electronic state is 1-A.
 Alpha  occ. eigenvalues --  -14.84403 -10.66488 -10.66089  -1.03711  -0.90072
 Alpha  occ. eigenvalues --   -0.59955  -0.54950  -0.54817  -0.44760  -0.38956
 Alpha  occ. eigenvalues --   -0.38874
 Alpha virt. eigenvalues --    0.03918   0.08155   0.08324   0.10183   0.11219
 Alpha virt. eigenvalues --    0.11264   0.15401   0.15931   0.16526   0.20138
 Alpha virt. eigenvalues --    0.20160   0.25224   0.32789   0.34964   0.35368

 Mulliken charges:
               1
     1  C   -0.073236
     2  C   -0.001574
     3  N   -0.211926
     4  H    0.095457
     5  H    0.095686
     6  H    0.095594
 Sum of Mulliken charges =   0.00000

 Dipole moment (field-independent basis, Debye):
    X=              4.1558    Y=              0.0113    Z=              0.0059  Tot=              4.1558
 Quadrupole moment (field-independent basis, Debye-Ang):
   XX=            -20.9553   YY=            -17.7071   ZZ=            -17.7453
   XY=             -0.0750   XZ=             -0.0166   YZ=              0.0062

 Normal termination of Gaussian 09 at Thu Aug 27 00:13:05 2020.
