 Gaussian 09, Revision D.01,
 Gaussian 09:  ES64L-G09RevD.01 24-Apr-2013

 --------------------
 #p B2PLYPD3/Def2QZVP
 --------------------

 ------------
 cyanomethane
 ------------
 Symbolic Z-matrix:
 Charge =  0 Multiplicity = 1

                         Standard orientation:
 ---------------------------------------------------------------------
 Center     Atomic      Atomic             Coordinates (Angstroms)
 Number     Number       Type             X           Y           Z
 ---------------------------------------------------------------------
      1          6           0       -1.186823    0.005195    0.002329
      2          6           0        0.292175    0.029853   -0.005325
      3          7           0        1.433623   -0.010066    0.005519
      4          1           0       -1.584032   -0.194636    1.033585
      5          1           0       -1.469271   -0.925951   -0.648448
      6          1           0       -1.614167    0.980761   -0.405795
 ---------------------------------------------------------------------

 SCF Done:  E(RB2PLYPD3) =  -132.527864633     A.U. after   12 cycles
 E2(B2PLYPD3) =    -0.1802463599D+00 E(B2PLYPD3) =    -0.13270811099326D+03

 The electronic state is 1-A.
 Alpha  occ. eigenvalues --  -14.83835 -10.68978 -10.65989  -1.04548  -0.87645
 Alpha  occ. eigenvalues --   -0.58460  -0.53227  -0.52100  -0.44673  -0.39415
 Alpha  occ. eigenvalues --   -0.39117
 Alpha virt. eigenvalues --    0.03380   0.07514   0.07649   0.10226   0.11477
 Alpha virt. eigenvalues --    0.11857   0.15032   0.15913   0.16621   0.19943
 Alpha virt. eigenvalues --    0.20082   0.24952   0.31942   0.32988   0.34289

 Mulliken charges:
               1
     1  C   -0.113238
     2  C   -0.000777
     3  N   -0.198042
     4  H    0.103205
     5  H    0.102813
     6  H    0.106037
 Sum of Mulliken charges =   0.00000

 Dipole moment (field-independent basis, Debye):
    X=             -4.0866    Y=             -0.0017    Z=              0.0133  Tot=              4.0866
 Quadrupole moment (field-independent basis, Debye-Ang):
   XX=            -21.2767   YY=            -17.6114   ZZ=            -17.8905
   XY=             -0.0097   XZ=             -0.1363   YZ=             -0.0396

 Normal termination of Gaussian 09 at Wed Aug 26 14:21:23 2020.
