 Gaussian 09, Revision D.01,
 Gaussian 09:  ES64L-G09RevD.01 24-Apr-2013

 --------------------
 #p B2PLYPD3/Def2QZVP
 --------------------

 ------------
 cyanomethane
 ------------
 Symbolic Z-matrix:
 Charge =  0 Multiplicity = 1

                         Standard orientation:
 ---------------------------------------------------------------------
 Center     Atomic      Atomic             Coordinates (Angstroms)
 Number     Number       Type             X           Y           Z
 ---------------------------------------------------------------------
      1          6           0        1.160214   -0.057250    0.003988
      2          6           0       -0.281503    0.017579   -0.037811
      3          7           0       -1.419636    0.007604    0.025737
      4          1           0        1.405695   -0.590602   -0.800109
      5          1           0        1.581456   -0.340046    0.952563
      6          1           0        1.678031    1.115452   -0.129671
 ---------------------------------------------------------------------

 SCF Done:  E(RB2PLYPD3) =  -132.508226314     A.U. after   12 cycles
 E2(B2PLYPD3) =    -0.1800691284D+00 E(B2PLYPD3) =    -0.13268829544279D+03

 The electronic state is 1-A.
 Alpha  occ. eigenvalues --  -14.83876 -10.67695 -10.65828  -1.04854  -0.89387
 Alpha  occ. eigenvalues --   -0.59767  -0.57021  -0.49888  -0.44848  -0.39764
 Alpha  occ. eigenvalues --   -0.38604
 Alpha virt. eigenvalues --    0.03040   0.06228   0.08941   0.10117   0.11195
 Alpha virt. eigenvalues --    0.12404   0.15325   0.16033   0.17175   0.19869
 Alpha virt. eigenvalues --    0.20172   0.25716   0.29668   0.34011   0.36076

 Mulliken charges:
               1
     1  C   -0.099359
     2  C    0.002249
     3  N   -0.197838
     4  H    0.113413
     5  H    0.106395
     6  H    0.075139
 Sum of Mulliken charges =   0.00000

 Dipole moment (field-independent basis, Debye):
    X=              4.0358    Y=             -0.0683    Z=             -0.0123  Tot=              4.0364
 Quadrupole moment (field-independent basis, Debye-Ang):
   XX=            -21.0861   YY=            -17.9041   ZZ=            -17.6046
   XY=              0.1207   XZ=              0.3180   YZ=              0.1476

 Normal termination of Gaussian 09 at Wed Aug 26 23:49:56 2020.
