 Gaussian 09, Revision D.01,
 Gaussian 09:  ES64L-G09RevD.01 24-Apr-2013

 --------------------
 #p B2PLYPD3/Def2QZVP
 --------------------

 ------------
 cyanomethane
 ------------
 Symbolic Z-matrix:
 Charge =  0 Multiplicity = 1

                         Standard orientation:
 ---------------------------------------------------------------------
 Center     Atomic      Atomic             Coordinates (Angstroms)
 Number     Number       Type             X           Y           Z
 ---------------------------------------------------------------------
      1          6           0        1.185116    0.029351   -0.021510
      2          6           0       -0.283367   -0.009117   -0.061986
      3          7           0       -1.440553    0.004958    0.041616
      4          1           0        1.459308   -0.674474   -0.772490
      5          1           0        1.622490   -0.484136    1.013486
      6          1           0        1.591577    1.002500   -0.031328
 ---------------------------------------------------------------------

 SCF Done:  E(RB2PLYPD3) =  -132.517678430     A.U. after   12 cycles
 E2(B2PLYPD3) =    -0.1819231945D+00 E(B2PLYPD3) =    -0.13269960162494D+03

 The electronic state is 1-A.
 Alpha  occ. eigenvalues --  -14.84508 -10.68095 -10.66589  -1.03872  -0.88692
 Alpha  occ. eigenvalues --   -0.59547  -0.55975  -0.50388  -0.44866  -0.39215
 Alpha  occ. eigenvalues --   -0.38385
 Alpha virt. eigenvalues --    0.02983   0.06660   0.08456   0.09974   0.10939
 Alpha virt. eigenvalues --    0.11799   0.15184   0.15660   0.17175   0.19932
 Alpha virt. eigenvalues --    0.20243   0.25271   0.31035   0.32974   0.35864

 Mulliken charges:
               1
     1  C   -0.096810
     2  C    0.004219
     3  N   -0.207697
     4  H    0.105672
     5  H    0.083941
     6  H    0.110676
 Sum of Mulliken charges =   0.00000

 Dipole moment (field-independent basis, Debye):
    X=              4.0977    Y=             -0.0147    Z=             -0.0724  Tot=              4.0983
 Quadrupole moment (field-independent basis, Debye-Ang):
   XX=            -21.1203   YY=            -17.6269   ZZ=            -18.0320
   XY=              0.0502   XZ=              0.3423   YZ=              0.1502

 Normal termination of Gaussian 09 at Wed Aug 26 23:48:24 2020.
