 Gaussian 09, Revision D.01,
 Gaussian 09:  ES64L-G09RevD.01 24-Apr-2013

 --------------------
 #p B2PLYPD3/Def2QZVP
 --------------------

 ------------
 cyanomethane
 ------------
 Symbolic Z-matrix:
 Charge =  0 Multiplicity = 1

                         Standard orientation:
 ---------------------------------------------------------------------
 Center     Atomic      Atomic             Coordinates (Angstroms)
 Number     Number       Type             X           Y           Z
 ---------------------------------------------------------------------
      1          6           0       -1.193064   -0.005582    0.032002
      2          6           0        0.260842   -0.077572   -0.013044
      3          7           0        1.450954    0.034804   -0.001610
      4          1           0       -1.457282   -0.029443    0.962211
      5          1           0       -1.625751   -0.732605   -0.632519
      6          1           0       -1.480316    1.017342   -0.432169
 ---------------------------------------------------------------------

 SCF Done:  E(RB2PLYPD3) =  -132.512732219     A.U. after   12 cycles
 E2(B2PLYPD3) =    -0.1840995282D+00 E(B2PLYPD3) =    -0.13269683174752D+03

 The electronic state is 1-A.
 Alpha  occ. eigenvalues --  -14.85271 -10.67376 -10.66612  -1.02545  -0.90171
 Alpha  occ. eigenvalues --   -0.60029  -0.57337  -0.52344  -0.44853  -0.38375
 Alpha  occ. eigenvalues --   -0.37754
 Alpha virt. eigenvalues --    0.03363   0.06952   0.07928   0.10079   0.10668
 Alpha virt. eigenvalues --    0.11290   0.15276   0.15733   0.16191   0.20147
 Alpha virt. eigenvalues --    0.20320   0.25551   0.32165   0.32717   0.36077

 Mulliken charges:
               1
     1  C   -0.089395
     2  C    0.006562
     3  N   -0.224888
     4  H    0.113439
     5  H    0.100411
     6  H    0.093870
 Sum of Mulliken charges =   0.00000

 Dipole moment (field-independent basis, Debye):
    X=             -4.1659    Y=             -0.0191    Z=             -0.0117  Tot=              4.1659
 Quadrupole moment (field-independent basis, Debye-Ang):
   XX=            -21.1251   YY=            -17.9371   ZZ=            -17.7004
   XY=             -0.1140   XZ=              0.1430   YZ=              0.0442

 Normal termination of Gaussian 09 at Wed Aug 26 19:43:13 2020.
