 Gaussian 09, Revision D.01,
 Gaussian 09:  ES64L-G09RevD.01 24-Apr-2013

 --------------------
 #p B2PLYPD3/Def2QZVP
 --------------------

 ------------
 cyanomethane
 ------------
 Symbolic Z-matrix:
 Charge =  0 Multiplicity = 1

                         Standard orientation:
 ---------------------------------------------------------------------
 Center     Atomic      Atomic             Coordinates (Angstroms)
 Number     Number       Type             X           Y           Z
 ---------------------------------------------------------------------
      1          6           0       -1.175181    0.001276    0.001951
      2          6           0        0.276539   -0.001694   -0.014045
      3          7           0        1.429875   -0.004198    0.008718
      4          1           0       -1.469692    0.941657   -0.427076
      5          1           0       -1.565929   -0.073815    1.008897
      6          1           0       -1.581651   -0.835948   -0.570286
 ---------------------------------------------------------------------

 SCF Done:  E(RB2PLYPD3) =  -132.535126007     A.U. after   12 cycles
 E2(B2PLYPD3) =    -0.1803071961D+00 E(B2PLYPD3) =    -0.13271543320272D+03

 The electronic state is 1-A.
 Alpha  occ. eigenvalues --  -14.84110 -10.66881 -10.66154  -1.04146  -0.89498
 Alpha  occ. eigenvalues --   -0.59763  -0.54567  -0.53718  -0.44749  -0.39056
 Alpha  occ. eigenvalues --   -0.39027
 Alpha virt. eigenvalues --    0.03798   0.07780   0.08246   0.10178   0.11435
 Alpha virt. eigenvalues --    0.11542   0.15410   0.15991   0.16628   0.20075
 Alpha virt. eigenvalues --    0.20131   0.25450   0.32836   0.34676   0.34748

 Mulliken charges:
               1
     1  C   -0.084478
     2  C   -0.001901
     3  N   -0.206410
     4  H    0.100043
     5  H    0.096305
     6  H    0.096441
 Sum of Mulliken charges =   0.00000

 Dipole moment (field-independent basis, Debye):
    X=             -4.1232    Y=              0.0115    Z=             -0.0053  Tot=              4.1232
 Quadrupole moment (field-independent basis, Debye-Ang):
   XX=            -21.0293   YY=            -17.6656   ZZ=            -17.7788
   XY=              0.1006   XZ=             -0.0947   YZ=             -0.0168

 Normal termination of Gaussian 09 at Thu Aug 27 00:00:27 2020.
