 Gaussian 09, Revision D.01,
 Gaussian 09:  ES64L-G09RevD.01 24-Apr-2013

 --------------------
 #p B2PLYPD3/Def2QZVP
 --------------------

 ------------
 cyanomethane
 ------------
 Symbolic Z-matrix:
 Charge =  0 Multiplicity = 1

                         Standard orientation:
 ---------------------------------------------------------------------
 Center     Atomic      Atomic             Coordinates (Angstroms)
 Number     Number       Type             X           Y           Z
 ---------------------------------------------------------------------
      1          6           0       -1.174774    0.006057   -0.009172
      2          6           0        0.257533    0.039254    0.001401
      3          7           0        1.434993   -0.030269   -0.002714
      4          1           0       -1.398611    0.963449   -0.201780
      5          1           0       -1.510070   -0.305548    0.935643
      6          1           0       -1.632827   -0.717883   -0.668239
 ---------------------------------------------------------------------

 SCF Done:  E(RB2PLYPD3) =  -132.520760753     A.U. after   12 cycles
 E2(B2PLYPD3) =    -0.1823703768D+00 E(B2PLYPD3) =    -0.13270313112941D+03

 The electronic state is 1-A.
 Alpha  occ. eigenvalues --  -14.84766 -10.66786 -10.65569  -1.03216  -0.91020
 Alpha  occ. eigenvalues --   -0.60764  -0.56890  -0.53550  -0.44816  -0.38489
 Alpha  occ. eigenvalues --   -0.38244
 Alpha virt. eigenvalues --    0.03816   0.07161   0.08642   0.09955   0.10949
 Alpha virt. eigenvalues --    0.11554   0.15130   0.15825   0.16916   0.20140
 Alpha virt. eigenvalues --    0.20403   0.25821   0.32958   0.34576   0.35708

 Mulliken charges:
               1
     1  C   -0.073342
     2  C    0.002827
     3  N   -0.220242
     4  H    0.105000
     5  H    0.092496
     6  H    0.093260
 Sum of Mulliken charges =   0.00000

 Dipole moment (field-independent basis, Debye):
    X=             -4.1636    Y=              0.0177    Z=              0.0383  Tot=              4.1638
 Quadrupole moment (field-independent basis, Debye-Ang):
   XX=            -20.9632   YY=            -17.5455   ZZ=            -17.9371
   XY=              0.3695   XZ=             -0.0229   YZ=             -0.0509

 Normal termination of Gaussian 09 at Wed Aug 26 21:00:24 2020.
