 Gaussian 09, Revision D.01,
 Gaussian 09:  ES64L-G09RevD.01 24-Apr-2013

 --------------------
 #p B2PLYPD3/Def2QZVP
 --------------------

 ------------
 cyanomethane
 ------------
 Symbolic Z-matrix:
 Charge =  0 Multiplicity = 1

                         Standard orientation:
 ---------------------------------------------------------------------
 Center     Atomic      Atomic             Coordinates (Angstroms)
 Number     Number       Type             X           Y           Z
 ---------------------------------------------------------------------
      1          6           0       -1.185569   -0.007557    0.008522
      2          6           0        0.289231    0.047019    0.000143
      3          7           0        1.430243   -0.023306   -0.003886
      4          1           0       -1.503964   -0.342528    0.974986
      5          1           0       -1.566925   -0.738879   -0.767882
      6          1           0       -1.562782    1.007780   -0.231895
 ---------------------------------------------------------------------

 SCF Done:  E(RB2PLYPD3) =  -132.533474415     A.U. after   12 cycles
 E2(B2PLYPD3) =    -0.1797425036D+00 E(B2PLYPD3) =    -0.13271321691840D+03

 The electronic state is 1-A.
 Alpha  occ. eigenvalues --  -14.83855 -10.67729 -10.65928  -1.04516  -0.88562
 Alpha  occ. eigenvalues --   -0.58829  -0.54334  -0.52873  -0.44685  -0.39429
 Alpha  occ. eigenvalues --   -0.39262
 Alpha virt. eigenvalues --    0.03607   0.07744   0.08386   0.10182   0.11403
 Alpha virt. eigenvalues --    0.11633   0.15277   0.15963   0.16572   0.19957
 Alpha virt. eigenvalues --    0.20073   0.25155   0.32520   0.33921   0.34845

 Mulliken charges:
               1
     1  C   -0.097561
     2  C   -0.004181
     3  N   -0.199512
     4  H    0.104014
     5  H    0.097648
     6  H    0.099592
 Sum of Mulliken charges =   0.00000

 Dipole moment (field-independent basis, Debye):
    X=             -4.0920    Y=              0.0247    Z=              0.0144  Tot=              4.0921
 Quadrupole moment (field-independent basis, Debye-Ang):
   XX=            -21.1486   YY=            -17.6725   ZZ=            -17.7458
   XY=              0.1477   XZ=              0.0575   YZ=             -0.0484

 Normal termination of Gaussian 09 at Wed Aug 26 15:08:12 2020.
