 Gaussian 09, Revision D.01,
 Gaussian 09:  ES64L-G09RevD.01 24-Apr-2013

 --------------------
 #p B2PLYPD3/Def2QZVP
 --------------------

 ------------
 cyanomethane
 ------------
 Symbolic Z-matrix:
 Charge =  0 Multiplicity = 1

                         Standard orientation:
 ---------------------------------------------------------------------
 Center     Atomic      Atomic             Coordinates (Angstroms)
 Number     Number       Type             X           Y           Z
 ---------------------------------------------------------------------
      1          6           0       -1.186629   -0.021126    0.003321
      2          6           0        0.276579    0.038177   -0.006897
      3          7           0        1.439720   -0.018218    0.001667
      4          1           0       -1.535335    1.029751   -0.074530
      5          1           0       -1.521931   -0.433114    0.919303
      6          1           0       -1.560473   -0.571416   -0.834986
 ---------------------------------------------------------------------

 SCF Done:  E(RB2PLYPD3) =  -132.533048365     A.U. after   12 cycles
 E2(B2PLYPD3) =    -0.1812606685D+00 E(B2PLYPD3) =    -0.13271430903305D+03

 The electronic state is 1-A.
 Alpha  occ. eigenvalues --  -14.84448 -10.66958 -10.66531  -1.03690  -0.89398
 Alpha  occ. eigenvalues --   -0.59607  -0.54896  -0.53591  -0.44776  -0.38960
 Alpha  occ. eigenvalues --   -0.38719
 Alpha virt. eigenvalues --    0.03769   0.07828   0.07957   0.10109   0.11215
 Alpha virt. eigenvalues --    0.11361   0.15354   0.15668   0.16717   0.20123
 Alpha virt. eigenvalues --    0.20143   0.25327   0.32519   0.34175   0.35298

 Mulliken charges:
               1
     1  C   -0.085045
     2  C    0.000208
     3  N   -0.211419
     4  H    0.094096
     5  H    0.101822
     6  H    0.100338
 Sum of Mulliken charges =   0.00000

 Dipole moment (field-independent basis, Debye):
    X=             -4.1368    Y=              0.0262    Z=              0.0004  Tot=              4.1369
 Quadrupole moment (field-independent basis, Debye-Ang):
   XX=            -21.0708   YY=            -17.7844   ZZ=            -17.7236
   XY=              0.0962   XZ=              0.0146   YZ=              0.0005

 Normal termination of Gaussian 09 at Wed Aug 26 11:41:02 2020.
