 Gaussian 09, Revision D.01,
 Gaussian 09:  ES64L-G09RevD.01 24-Apr-2013

 --------------------
 #p B2PLYPD3/Def2QZVP
 --------------------

 ------------
 cyanomethane
 ------------
 Symbolic Z-matrix:
 Charge =  0 Multiplicity = 1

                         Standard orientation:
 ---------------------------------------------------------------------
 Center     Atomic      Atomic             Coordinates (Angstroms)
 Number     Number       Type             X           Y           Z
 ---------------------------------------------------------------------
      1          6           0        1.179428    0.007111    0.005001
      2          6           0       -0.277483   -0.025922    0.005036
      3          7           0       -1.428425    0.014205   -0.003439
      4          1           0        1.547351    0.954603   -0.409109
      5          1           0        1.517085   -0.816170   -0.633802
      6          1           0        1.522865   -0.124996    1.006766
 ---------------------------------------------------------------------

 SCF Done:  E(RB2PLYPD3) =  -132.535191719     A.U. after   12 cycles
 E2(B2PLYPD3) =    -0.1801745053D+00 E(B2PLYPD3) =    -0.13271536622396D+03

 The electronic state is 1-A.
 Alpha  occ. eigenvalues --  -14.84018 -10.67045 -10.66058  -1.04181  -0.89353
 Alpha  occ. eigenvalues --   -0.59277  -0.54642  -0.53786  -0.44690  -0.39139
 Alpha  occ. eigenvalues --   -0.39016
 Alpha virt. eigenvalues --    0.03758   0.07874   0.08325   0.10169   0.11398
 Alpha virt. eigenvalues --    0.11543   0.15393   0.15842   0.16500   0.20079
 Alpha virt. eigenvalues --    0.20103   0.25377   0.32811   0.34328   0.34886

 Mulliken charges:
               1
     1  C   -0.090784
     2  C   -0.003193
     3  N   -0.205570
     4  H    0.099630
     5  H    0.098381
     6  H    0.101535
 Sum of Mulliken charges =   0.00000

 Dipole moment (field-independent basis, Debye):
    X=              4.1108    Y=             -0.0232    Z=              0.0039  Tot=              4.1109
 Quadrupole moment (field-independent basis, Debye-Ang):
   XX=            -21.1395   YY=            -17.7107   ZZ=            -17.6721
   XY=              0.0960   XZ=             -0.0274   YZ=             -0.0075

 Normal termination of Gaussian 09 at Wed Aug 26 13:41:26 2020.
