 Gaussian 09, Revision D.01,
 Gaussian 09:  ES64L-G09RevD.01 24-Apr-2013

 --------------------
 #p B2PLYPD3/Def2QZVP
 --------------------

 ------------
 cyanomethane
 ------------
 Symbolic Z-matrix:
 Charge =  0 Multiplicity = 1

                         Standard orientation:
 ---------------------------------------------------------------------
 Center     Atomic      Atomic             Coordinates (Angstroms)
 Number     Number       Type             X           Y           Z
 ---------------------------------------------------------------------
      1          6           0        1.200706   -0.013367   -0.014592
      2          6           0       -0.292307   -0.042938   -0.027404
      3          7           0       -1.436492    0.021037    0.023894
      4          1           0        1.645723    0.112825    1.012555
      5          1           0        1.441598    0.934588   -0.514113
      6          1           0        1.517732   -0.856840   -0.413721
 ---------------------------------------------------------------------

 SCF Done:  E(RB2PLYPD3) =  -132.523010854     A.U. after   12 cycles
 E2(B2PLYPD3) =    -0.1798269254D+00 E(B2PLYPD3) =    -0.13270283777988D+03

 The electronic state is 1-A.
 Alpha  occ. eigenvalues --  -14.83956 -10.66890 -10.66079  -1.04316  -0.89306
 Alpha  occ. eigenvalues --   -0.59119  -0.56734  -0.51907  -0.44639  -0.39616
 Alpha  occ. eigenvalues --   -0.39060
 Alpha virt. eigenvalues --    0.03613   0.07617   0.09362   0.10253   0.10836
 Alpha virt. eigenvalues --    0.11753   0.15114   0.15848   0.16744   0.19892
 Alpha virt. eigenvalues --    0.20181   0.24733   0.32425   0.33615   0.35679

 Mulliken charges:
               1
     1  C   -0.090392
     2  C   -0.005371
     3  N   -0.202405
     4  H    0.088599
     5  H    0.101649
     6  H    0.107920
 Sum of Mulliken charges =   0.00000

 Dipole moment (field-independent basis, Debye):
    X=              4.1222    Y=             -0.0065    Z=             -0.0211  Tot=              4.1223
 Quadrupole moment (field-independent basis, Debye-Ang):
   XX=            -21.0437   YY=            -17.4831   ZZ=            -17.9370
   XY=              0.1107   XZ=              0.3129   YZ=              0.0615

 Normal termination of Gaussian 09 at Wed Aug 26 22:22:07 2020.
