 Gaussian 09, Revision D.01,
 Gaussian 09:  ES64L-G09RevD.01 24-Apr-2013

 --------------------
 #p B2PLYPD3/Def2QZVP
 --------------------

 ------------
 cyanomethane
 ------------
 Symbolic Z-matrix:
 Charge =  0 Multiplicity = 1

                         Standard orientation:
 ---------------------------------------------------------------------
 Center     Atomic      Atomic             Coordinates (Angstroms)
 Number     Number       Type             X           Y           Z
 ---------------------------------------------------------------------
      1          6           0        1.167185    0.002480   -0.004400
      2          6           0       -0.277197   -0.010028   -0.015041
      3          7           0       -1.432197    0.007488    0.010073
      4          1           0        1.521709   -0.834502   -0.607154
      5          1           0        1.579954   -0.131931    1.039873
      6          1           0        1.583786    0.959307   -0.386579
 ---------------------------------------------------------------------

 SCF Done:  E(RB2PLYPD3) =  -132.533420411     A.U. after   11 cycles
 E2(B2PLYPD3) =    -0.1808692460D+00 E(B2PLYPD3) =    -0.13271428965692D+03

 The electronic state is 1-A.
 Alpha  occ. eigenvalues --  -14.84256 -10.67622 -10.66284  -1.04142  -0.88966
 Alpha  occ. eigenvalues --   -0.59871  -0.54019  -0.52763  -0.44857  -0.39022
 Alpha  occ. eigenvalues --   -0.38868
 Alpha virt. eigenvalues --    0.03628   0.07227   0.07823   0.10130   0.11462
 Alpha virt. eigenvalues --    0.11701   0.15466   0.16140   0.16702   0.20047
 Alpha virt. eigenvalues --    0.20145   0.25594   0.32681   0.33975   0.34595

 Mulliken charges:
               1
     1  C   -0.087306
     2  C    0.000819
     3  N   -0.205671
     4  H    0.099522
     5  H    0.094462
     6  H    0.098173
 Sum of Mulliken charges =   0.00000

 Dipole moment (field-independent basis, Debye):
    X=              4.1170    Y=             -0.0169    Z=             -0.0117  Tot=              4.1171
 Quadrupole moment (field-independent basis, Debye-Ang):
   XX=            -20.9978   YY=            -17.7320   ZZ=            -17.8442
   XY=              0.0708   XZ=              0.0970   YZ=              0.0226

 Normal termination of Gaussian 09 at Wed Aug 26 21:35:24 2020.
