 Gaussian 09, Revision D.01,
 Gaussian 09:  ES64L-G09RevD.01 24-Apr-2013

 --------------------
 #p B2PLYPD3/Def2QZVP
 --------------------

 ------------
 cyanomethane
 ------------
 Symbolic Z-matrix:
 Charge =  0 Multiplicity = 1

                         Standard orientation:
 ---------------------------------------------------------------------
 Center     Atomic      Atomic             Coordinates (Angstroms)
 Number     Number       Type             X           Y           Z
 ---------------------------------------------------------------------
      1          6           0       -1.171186    0.003564   -0.010198
      2          6           0        0.279435   -0.003548    0.016422
      3          7           0        1.437498    0.002887   -0.007472
      4          1           0       -1.564965   -0.313405    0.957811
      5          1           0       -1.557110   -0.686941   -0.734819
      6          1           0       -1.589902    0.980042   -0.208028
 ---------------------------------------------------------------------

 SCF Done:  E(RB2PLYPD3) =  -132.534841025     A.U. after   11 cycles
 E2(B2PLYPD3) =    -0.1807553477D+00 E(B2PLYPD3) =    -0.13271559637264D+03

 The electronic state is 1-A.
 Alpha  occ. eigenvalues --  -14.84393 -10.66808 -10.66450  -1.04042  -0.89437
 Alpha  occ. eigenvalues --   -0.60526  -0.54128  -0.53475  -0.44912  -0.39083
 Alpha  occ. eigenvalues --   -0.38946
 Alpha virt. eigenvalues --    0.03790   0.07720   0.07839   0.10147   0.11411
 Alpha virt. eigenvalues --    0.11518   0.15516   0.16243   0.16904   0.20106
 Alpha virt. eigenvalues --    0.20114   0.25505   0.32810   0.34534   0.35092

 Mulliken charges:
               1
     1  C   -0.070767
     2  C    0.001550
     3  N   -0.207520
     4  H    0.089567
     5  H    0.093819
     6  H    0.093352
 Sum of Mulliken charges =   0.00000

 Dipole moment (field-independent basis, Debye):
    X=             -4.1446    Y=             -0.0120    Z=              0.0170  Tot=              4.1447
 Quadrupole moment (field-independent basis, Debye-Ang):
   XX=            -20.7979   YY=            -17.7719   ZZ=            -17.8450
   XY=             -0.0203   XZ=              0.0222   YZ=              0.0180

 Normal termination of Gaussian 09 at Thu Aug 27 00:08:03 2020.
