 Gaussian 09, Revision D.01,
 Gaussian 09:  ES64L-G09RevD.01 24-Apr-2013

 --------------------
 #p B2PLYPD3/Def2QZVP
 --------------------

 ------------
 cyanomethane
 ------------
 Symbolic Z-matrix:
 Charge =  0 Multiplicity = 1

                         Standard orientation:
 ---------------------------------------------------------------------
 Center     Atomic      Atomic             Coordinates (Angstroms)
 Number     Number       Type             X           Y           Z
 ---------------------------------------------------------------------
      1          6           0        1.180991    0.000922    0.006023
      2          6           0       -0.286948   -0.061122   -0.008815
      3          7           0       -1.408213    0.035720    0.005428
      4          1           0        1.518749    0.087261    0.971411
      5          1           0        1.526816    0.925107   -0.538779
      6          1           0        1.447668   -0.901207   -0.453879
 ---------------------------------------------------------------------

 SCF Done:  E(RB2PLYPD3) =  -132.528302174     A.U. after   11 cycles
 E2(B2PLYPD3) =    -0.1779153504D+00 E(B2PLYPD3) =    -0.13270621752441D+03

 The electronic state is 1-A.
 Alpha  occ. eigenvalues --  -14.83187 -10.66418 -10.65148  -1.05174  -0.89676
 Alpha  occ. eigenvalues --   -0.59022  -0.55629  -0.53505  -0.44500  -0.39841
 Alpha  occ. eigenvalues --   -0.39641
 Alpha virt. eigenvalues --    0.03733   0.08358   0.09391   0.10207   0.11486
 Alpha virt. eigenvalues --    0.11830   0.15298   0.15726   0.16816   0.19867
 Alpha virt. eigenvalues --    0.20071   0.25374   0.33120   0.34261   0.35455

 Mulliken charges:
               1
     1  C   -0.096080
     2  C   -0.010881
     3  N   -0.191560
     4  H    0.098901
     5  H    0.096273
     6  H    0.103347
 Sum of Mulliken charges =   0.00000

 Dipole moment (field-independent basis, Debye):
    X=              4.0430    Y=             -0.0536    Z=              0.0206  Tot=              4.0434
 Quadrupole moment (field-independent basis, Debye-Ang):
   XX=            -21.2105   YY=            -17.3984   ZZ=            -17.6831
   XY=              0.2889   XZ=              0.1272   YZ=              0.0683

 Normal termination of Gaussian 09 at Wed Aug 26 21:53:03 2020.
