 Gaussian 09, Revision D.01,
 Gaussian 09:  ES64L-G09RevD.01 24-Apr-2013

 --------------------
 #p B2PLYPD3/Def2QZVP
 --------------------

 ------------
 cyanomethane
 ------------
 Symbolic Z-matrix:
 Charge =  0 Multiplicity = 1

                         Standard orientation:
 ---------------------------------------------------------------------
 Center     Atomic      Atomic             Coordinates (Angstroms)
 Number     Number       Type             X           Y           Z
 ---------------------------------------------------------------------
      1          6           0       -1.203994   -0.032827   -0.007601
      2          6           0        0.284358   -0.023081   -0.039834
      3          7           0        1.442242    0.010197    0.025905
      4          1           0       -1.578567    0.255455    0.940822
      5          1           0       -1.567102   -0.851608   -0.275305
      6          1           0       -1.432207    0.860221   -0.562241
 ---------------------------------------------------------------------

 SCF Done:  E(RB2PLYPD3) =  -132.509802913     A.U. after   12 cycles
 E2(B2PLYPD3) =    -0.1805357903D+00 E(B2PLYPD3) =    -0.13269033870330D+03

 The electronic state is 1-A.
 Alpha  occ. eigenvalues --  -14.84322 -10.66499 -10.65474  -1.03823  -0.90625
 Alpha  occ. eigenvalues --   -0.60777  -0.57888  -0.52358  -0.44711  -0.39440
 Alpha  occ. eigenvalues --   -0.38692
 Alpha virt. eigenvalues --    0.03830   0.08020   0.09306   0.10163   0.10608
 Alpha virt. eigenvalues --    0.11706   0.15192   0.15710   0.17146   0.19953
 Alpha virt. eigenvalues --    0.20286   0.24735   0.32656   0.33900   0.36220

 Mulliken charges:
               1
     1  C   -0.077556
     2  C    0.001506
     3  N   -0.210476
     4  H    0.083944
     5  H    0.108817
     6  H    0.093766
 Sum of Mulliken charges =   0.00000

 Dipole moment (field-independent basis, Debye):
    X=             -4.1641    Y=              0.0489    Z=              0.0009  Tot=              4.1644
 Quadrupole moment (field-independent basis, Debye-Ang):
   XX=            -20.8655   YY=            -17.4190   ZZ=            -18.0160
   XY=             -0.0967   XZ=             -0.3061   YZ=              0.0724

 Normal termination of Gaussian 09 at Wed Aug 26 20:35:59 2020.
