 Gaussian 09, Revision D.01,
 Gaussian 09:  ES64L-G09RevD.01 24-Apr-2013

 --------------------
 #p B2PLYPD3/Def2QZVP
 --------------------

 ------------
 cyanomethane
 ------------
 Symbolic Z-matrix:
 Charge =  0 Multiplicity = 1

                         Standard orientation:
 ---------------------------------------------------------------------
 Center     Atomic      Atomic             Coordinates (Angstroms)
 Number     Number       Type             X           Y           Z
 ---------------------------------------------------------------------
      1          6           0       -1.173954    0.000611    0.010744
      2          6           0        0.283106    0.043508   -0.012119
      3          7           0        1.423809   -0.010080    0.009179
      4          1           0       -1.564473   -0.271746    0.987419
      5          1           0       -1.387115   -0.935754   -0.682084
      6          1           0       -1.669990    1.013346   -0.361342
 ---------------------------------------------------------------------

 SCF Done:  E(RB2PLYPD3) =  -132.521958703     A.U. after   12 cycles
 E2(B2PLYPD3) =    -0.1804597077D+00 E(B2PLYPD3) =    -0.13270241841077D+03

 The electronic state is 1-A.
 Alpha  occ. eigenvalues --  -14.83770 -10.68960 -10.65896  -1.04593  -0.88032
 Alpha  occ. eigenvalues --   -0.58964  -0.52940  -0.52105  -0.44673  -0.39301
 Alpha  occ. eigenvalues --   -0.38865
 Alpha virt. eigenvalues --    0.03295   0.07083   0.07579   0.10182   0.11610
 Alpha virt. eigenvalues --    0.12095   0.15059   0.15698   0.16899   0.19941
 Alpha virt. eigenvalues --    0.20143   0.25372   0.31434   0.32536   0.34429

 Mulliken charges:
               1
     1  C   -0.117923
     2  C    0.002852
     3  N   -0.199380
     4  H    0.106558
     5  H    0.103260
     6  H    0.104633
 Sum of Mulliken charges =   0.00000

 Dipole moment (field-independent basis, Debye):
    X=             -4.0635    Y=             -0.0248    Z=              0.0282  Tot=              4.0637
 Quadrupole moment (field-independent basis, Debye-Ang):
   XX=            -21.3368   YY=            -17.5004   ZZ=            -17.9667
   XY=             -0.0749   XZ=             -0.2228   YZ=             -0.0445

 Normal termination of Gaussian 09 at Wed Aug 26 23:53:02 2020.
