 Gaussian 09, Revision D.01,
 Gaussian 09:  ES64L-G09RevD.01 24-Apr-2013

 --------------------
 #p B2PLYPD3/Def2QZVP
 --------------------

 ------------
 cyanomethane
 ------------
 Symbolic Z-matrix:
 Charge =  0 Multiplicity = 1

                         Standard orientation:
 ---------------------------------------------------------------------
 Center     Atomic      Atomic             Coordinates (Angstroms)
 Number     Number       Type             X           Y           Z
 ---------------------------------------------------------------------
      1          6           0       -1.168550    0.009450   -0.020888
      2          6           0        0.268926    0.008160    0.035290
      3          7           0        1.431014   -0.004534   -0.017111
      4          1           0       -1.524621   -0.239316    0.962192
      5          1           0       -1.541154   -0.756096   -0.646819
      6          1           0       -1.553584    0.921491   -0.282017
 ---------------------------------------------------------------------

 SCF Done:  E(RB2PLYPD3) =  -132.530575715     A.U. after   11 cycles
 E2(B2PLYPD3) =    -0.1808530723D+00 E(B2PLYPD3) =    -0.13271142878765D+03

 The electronic state is 1-A.
 Alpha  occ. eigenvalues --  -14.84416 -10.66418 -10.65772  -1.03837  -0.90447
 Alpha  occ. eigenvalues --   -0.60818  -0.55704  -0.53871  -0.44857  -0.39008
 Alpha  occ. eigenvalues --   -0.38673
 Alpha virt. eigenvalues --    0.03902   0.07892   0.08202   0.10094   0.11218
 Alpha virt. eigenvalues --    0.11565   0.15645   0.15782   0.17068   0.20133
 Alpha virt. eigenvalues --    0.20190   0.25799   0.33071   0.34542   0.35769

 Mulliken charges:
               1
     1  C   -0.065147
     2  C    0.002283
     3  N   -0.211884
     4  H    0.086731
     5  H    0.092489
     6  H    0.095529
 Sum of Mulliken charges =   0.00000

 Dipole moment (field-independent basis, Debye):
    X=             -4.1482    Y=             -0.0086    Z=              0.0426  Tot=              4.1484
 Quadrupole moment (field-independent basis, Debye-Ang):
   XX=            -20.8331   YY=            -17.6470   ZZ=            -17.8289
   XY=              0.0485   XZ=              0.0582   YZ=             -0.0096

 Normal termination of Gaussian 09 at Wed Aug 26 12:15:14 2020.
