 Gaussian 09, Revision D.01,
 Gaussian 09:  ES64L-G09RevD.01 24-Apr-2013

 --------------------
 #p B2PLYPD3/Def2QZVP
 --------------------

 ------------
 cyanomethane
 ------------
 Symbolic Z-matrix:
 Charge =  0 Multiplicity = 1

                         Standard orientation:
 ---------------------------------------------------------------------
 Center     Atomic      Atomic             Coordinates (Angstroms)
 Number     Number       Type             X           Y           Z
 ---------------------------------------------------------------------
      1          6           0       -1.165236   -0.005587   -0.011557
      2          6           0        0.274202    0.010924    0.020953
      3          7           0        1.434091   -0.006106   -0.008646
      4          1           0       -1.545957    0.947557   -0.411225
      5          1           0       -1.579846   -0.110110    1.019965
      6          1           0       -1.566626   -0.826735   -0.604593
 ---------------------------------------------------------------------

 SCF Done:  E(RB2PLYPD3) =  -132.533944712     A.U. after   11 cycles
 E2(B2PLYPD3) =    -0.1811954326D+00 E(B2PLYPD3) =    -0.13271514014424D+03

 The electronic state is 1-A.
 Alpha  occ. eigenvalues --  -14.84410 -10.67338 -10.66430  -1.03968  -0.89210
 Alpha  occ. eigenvalues --   -0.60255  -0.53902  -0.53158  -0.44902  -0.38910
 Alpha  occ. eigenvalues --   -0.38771
 Alpha virt. eigenvalues --    0.03694   0.07398   0.07545   0.10105   0.11490
 Alpha virt. eigenvalues --    0.11585   0.15521   0.16145   0.16754   0.20116
 Alpha virt. eigenvalues --    0.20126   0.25710   0.32716   0.34151   0.34747

 Mulliken charges:
               1
     1  C   -0.081077
     2  C    0.002071
     3  N   -0.208285
     4  H    0.096295
     5  H    0.092548
     6  H    0.098448
 Sum of Mulliken charges =   0.00000

 Dipole moment (field-independent basis, Debye):
    X=             -4.1295    Y=              0.0102    Z=              0.0137  Tot=              4.1295
 Quadrupole moment (field-independent basis, Debye-Ang):
   XX=            -20.9332   YY=            -17.7677   ZZ=            -17.8430
   XY=              0.0453   XZ=              0.0208   YZ=              0.0156

 Normal termination of Gaussian 09 at Thu Aug 27 00:10:17 2020.
