 Gaussian 09, Revision D.01,
 Gaussian 09:  ES64L-G09RevD.01 24-Apr-2013

 --------------------
 #p B2PLYPD3/Def2QZVP
 --------------------

 ------------
 cyanomethane
 ------------
 Symbolic Z-matrix:
 Charge =  0 Multiplicity = 1

                         Standard orientation:
 ---------------------------------------------------------------------
 Center     Atomic      Atomic             Coordinates (Angstroms)
 Number     Number       Type             X           Y           Z
 ---------------------------------------------------------------------
      1          6           0        1.180651    0.007739   -0.000499
      2          6           0       -0.275264    0.013855   -0.024072
      3          7           0       -1.428444   -0.004079    0.020235
      4          1           0        1.613646   -0.260405    0.979977
      5          1           0        1.538890    0.979274   -0.300657
      6          1           0        1.414252   -0.819880   -0.673536
 ---------------------------------------------------------------------

 SCF Done:  E(RB2PLYPD3) =  -132.532038339     A.U. after   12 cycles
 E2(B2PLYPD3) =    -0.1805737662D+00 E(B2PLYPD3) =    -0.13271261210552D+03

 The electronic state is 1-A.
 Alpha  occ. eigenvalues --  -14.84058 -10.67217 -10.66130  -1.04078  -0.89355
 Alpha  occ. eigenvalues --   -0.59315  -0.55309  -0.52877  -0.44670  -0.39105
 Alpha  occ. eigenvalues --   -0.38786
 Alpha virt. eigenvalues --    0.03714   0.07514   0.08443   0.10159   0.11274
 Alpha virt. eigenvalues --    0.11698   0.15247   0.15569   0.16799   0.20049
 Alpha virt. eigenvalues --    0.20190   0.25380   0.32741   0.33882   0.35020

 Mulliken charges:
               1
     1  C   -0.095441
     2  C   -0.001462
     3  N   -0.207328
     4  H    0.096123
     5  H    0.105134
     6  H    0.102974
 Sum of Mulliken charges =   0.00000

 Dipole moment (field-independent basis, Debye):
    X=              4.1106    Y=             -0.0178    Z=             -0.0187  Tot=              4.1107
 Quadrupole moment (field-independent basis, Debye-Ang):
   XX=            -21.1914   YY=            -17.5190   ZZ=            -17.8874
   XY=             -0.0043   XZ=              0.2755   YZ=              0.0020

 Normal termination of Gaussian 09 at Wed Aug 26 14:48:40 2020.
