 Gaussian 09, Revision D.01,
 Gaussian 09:  ES64L-G09RevD.01 24-Apr-2013

 --------------------
 #p B2PLYPD3/Def2QZVP
 --------------------

 ------------
 cyanomethane
 ------------
 Symbolic Z-matrix:
 Charge =  0 Multiplicity = 1

                         Standard orientation:
 ---------------------------------------------------------------------
 Center     Atomic      Atomic             Coordinates (Angstroms)
 Number     Number       Type             X           Y           Z
 ---------------------------------------------------------------------
      1          6           0       -1.174872   -0.000824   -0.007015
      2          6           0        0.272857   -0.011802    0.010136
      3          7           0        1.432457    0.005292   -0.004579
      4          1           0       -1.537909    0.028634    0.987594
      5          1           0       -1.550201   -0.856553   -0.474066
      6          1           0       -1.526998    0.866629   -0.500200
 ---------------------------------------------------------------------

 SCF Done:  E(RB2PLYPD3) =  -132.533435479     A.U. after   11 cycles
 E2(B2PLYPD3) =    -0.1804763931D+00 E(B2PLYPD3) =    -0.13271391187197D+03

 The electronic state is 1-A.
 Alpha  occ. eigenvalues --  -14.84301 -10.66331 -10.65936  -1.03925  -0.90232
 Alpha  occ. eigenvalues --   -0.60371  -0.55119  -0.54462  -0.44801  -0.39021
 Alpha  occ. eigenvalues --   -0.38911
 Alpha virt. eigenvalues --    0.03925   0.08130   0.08256   0.10177   0.11295
 Alpha virt. eigenvalues --    0.11436   0.15550   0.16163   0.16534   0.20116
 Alpha virt. eigenvalues --    0.20154   0.25524   0.33020   0.34950   0.35385

 Mulliken charges:
               1
     1  C   -0.068412
     2  C   -0.000914
     3  N   -0.210042
     4  H    0.091242
     5  H    0.094349
     6  H    0.093776
 Sum of Mulliken charges =   0.00000

 Dipole moment (field-independent basis, Debye):
    X=             -4.1478    Y=             -0.0029    Z=              0.0151  Tot=              4.1478
 Quadrupole moment (field-independent basis, Debye-Ang):
   XX=            -20.8812   YY=            -17.6823   ZZ=            -17.7614
   XY=             -0.0224   XZ=              0.0026   YZ=              0.0117

 Normal termination of Gaussian 09 at Wed Aug 26 22:58:18 2020.
