 Gaussian 09, Revision D.01,
 Gaussian 09:  ES64L-G09RevD.01 24-Apr-2013

 --------------------
 #p B2PLYPD3/Def2QZVP
 --------------------

 ------------
 cyanomethane
 ------------
 Symbolic Z-matrix:
 Charge =  0 Multiplicity = 1

                         Standard orientation:
 ---------------------------------------------------------------------
 Center     Atomic      Atomic             Coordinates (Angstroms)
 Number     Number       Type             X           Y           Z
 ---------------------------------------------------------------------
      1          6           0       -1.184589    0.001954    0.017651
      2          6           0        0.281930    0.024729    0.012088
      3          7           0        1.438453   -0.020722   -0.014905
      4          1           0       -1.688319   -0.736026   -0.737651
      5          1           0       -1.477073    0.999496   -0.283472
      6          1           0       -1.487828   -0.278518    0.947023
 ---------------------------------------------------------------------

 SCF Done:  E(RB2PLYPD3) =  -132.525320913     A.U. after   12 cycles
 E2(B2PLYPD3) =    -0.1809296838D+00 E(B2PLYPD3) =    -0.13270625059701D+03

 The electronic state is 1-A.
 Alpha  occ. eigenvalues --  -14.84317 -10.67207 -10.66399  -1.03998  -0.89306
 Alpha  occ. eigenvalues --   -0.59555  -0.55864  -0.51937  -0.44795  -0.39201
 Alpha  occ. eigenvalues --   -0.38795
 Alpha virt. eigenvalues --    0.03506   0.07099   0.08740   0.10169   0.11101
 Alpha virt. eigenvalues --    0.11625   0.15289   0.15720   0.16962   0.20036
 Alpha virt. eigenvalues --    0.20200   0.25204   0.32097   0.33760   0.35398

 Mulliken charges:
               1
     1  C   -0.088745
     2  C   -0.000689
     3  N   -0.207333
     4  H    0.089135
     5  H    0.101716
     6  H    0.105916
 Sum of Mulliken charges =   0.00000

 Dipole moment (field-independent basis, Debye):
    X=             -4.1239    Y=              0.0401    Z=              0.0371  Tot=              4.1243
 Quadrupole moment (field-independent basis, Debye-Ang):
   XX=            -21.0091   YY=            -17.7529   ZZ=            -17.7994
   XY=              0.2286   XZ=              0.1661   YZ=             -0.1298

 Normal termination of Gaussian 09 at Wed Aug 26 15:47:01 2020.
