 Gaussian 09, Revision D.01,
 Gaussian 09:  ES64L-G09RevD.01 24-Apr-2013

 --------------------
 #p B2PLYPD3/Def2QZVP
 --------------------

 ------------
 cyanomethane
 ------------
 Symbolic Z-matrix:
 Charge =  0 Multiplicity = 1

                         Standard orientation:
 ---------------------------------------------------------------------
 Center     Atomic      Atomic             Coordinates (Angstroms)
 Number     Number       Type             X           Y           Z
 ---------------------------------------------------------------------
      1          6           0        1.170043    0.006367    0.005899
      2          6           0       -0.281185    0.000003   -0.009987
      3          7           0       -1.431886    0.000576    0.005064
      4          1           0        1.560369   -0.495596    0.880128
      5          1           0        1.581102    0.994534   -0.030136
      6          1           0        1.548581   -0.541188   -0.860909
 ---------------------------------------------------------------------

 SCF Done:  E(RB2PLYPD3) =  -132.535667943     A.U. after   11 cycles
 E2(B2PLYPD3) =    -0.1800734385D+00 E(B2PLYPD3) =    -0.13271574138142D+03

 The electronic state is 1-A.
 Alpha  occ. eigenvalues --  -14.84142 -10.66777 -10.66186  -1.04320  -0.89429
 Alpha  occ. eigenvalues --   -0.60337  -0.54169  -0.53558  -0.44850  -0.39248
 Alpha  occ. eigenvalues --   -0.39109
 Alpha virt. eigenvalues --    0.03808   0.07938   0.07996   0.10171   0.11471
 Alpha virt. eigenvalues --    0.11604   0.15523   0.16287   0.16832   0.20068
 Alpha virt. eigenvalues --    0.20087   0.25482   0.32912   0.34520   0.35110

 Mulliken charges:
               1
     1  C   -0.073762
     2  C   -0.000529
     3  N   -0.204087
     4  H    0.093165
     5  H    0.094269
     6  H    0.090944
 Sum of Mulliken charges =   0.00000

 Dipole moment (field-independent basis, Debye):
    X=              4.1305    Y=             -0.0081    Z=             -0.0103  Tot=              4.1305
 Quadrupole moment (field-independent basis, Debye-Ang):
   XX=            -20.8384   YY=            -17.7415   ZZ=            -17.7936
   XY=              0.0056   XZ=              0.0281   YZ=             -0.0140

 Normal termination of Gaussian 09 at Wed Aug 26 09:34:24 2020.
