 Gaussian 09, Revision D.01,
 Gaussian 09:  ES64L-G09RevD.01 24-Apr-2013

 --------------------
 #p B2PLYPD3/Def2QZVP
 --------------------

 ------------
 cyanomethane
 ------------
 Symbolic Z-matrix:
 Charge =  0 Multiplicity = 1

                         Standard orientation:
 ---------------------------------------------------------------------
 Center     Atomic      Atomic             Coordinates (Angstroms)
 Number     Number       Type             X           Y           Z
 ---------------------------------------------------------------------
      1          6           0        1.164965   -0.008164   -0.012481
      2          6           0       -0.277943    0.026748    0.020193
      3          7           0       -1.427224   -0.015491   -0.010439
      4          1           0        1.525710    1.002129   -0.071479
      5          1           0        1.589061   -0.574008   -0.763375
      6          1           0        1.553664   -0.431188    0.861657
 ---------------------------------------------------------------------

 SCF Done:  E(RB2PLYPD3) =  -132.531105665     A.U. after   12 cycles
 E2(B2PLYPD3) =    -0.1797698471D+00 E(B2PLYPD3) =    -0.13271087551177D+03

 The electronic state is 1-A.
 Alpha  occ. eigenvalues --  -14.84132 -10.66137 -10.65701  -1.04373  -0.90295
 Alpha  occ. eigenvalues --   -0.61263  -0.54684  -0.54091  -0.44877  -0.39272
 Alpha  occ. eigenvalues --   -0.39165
 Alpha virt. eigenvalues --    0.03931   0.08083   0.08389   0.10102   0.11438
 Alpha virt. eigenvalues --    0.11631   0.15626   0.16205   0.17178   0.20032
 Alpha virt. eigenvalues --    0.20174   0.25720   0.33217   0.34931   0.35531

 Mulliken charges:
               1
     1  C   -0.059522
     2  C    0.002376
     3  N   -0.205018
     4  H    0.089186
     5  H    0.088238
     6  H    0.084739
 Sum of Mulliken charges =   0.00000

 Dipole moment (field-independent basis, Debye):
    X=              4.1341    Y=              0.0004    Z=              0.0325  Tot=              4.1342
 Quadrupole moment (field-independent basis, Debye-Ang):
   XX=            -20.6926   YY=            -17.6094   ZZ=            -17.8673
   XY=             -0.1799   XZ=             -0.0349   YZ=              0.0132

 Normal termination of Gaussian 09 at Wed Aug 26 15:32:36 2020.
