 Gaussian 09, Revision D.01,
 Gaussian 09:  ES64L-G09RevD.01 24-Apr-2013

 --------------------
 #p B2PLYPD3/Def2QZVP
 --------------------

 ------------
 cyanomethane
 ------------
 Symbolic Z-matrix:
 Charge =  0 Multiplicity = 1

                         Standard orientation:
 ---------------------------------------------------------------------
 Center     Atomic      Atomic             Coordinates (Angstroms)
 Number     Number       Type             X           Y           Z
 ---------------------------------------------------------------------
      1          6           0        1.166083    0.020816    0.004521
      2          6           0       -0.271673    0.007395    0.004328
      3          7           0       -1.429920   -0.010310   -0.005731
      4          1           0        1.496013    1.031891   -0.062037
      5          1           0        1.612062   -0.617152   -0.835164
      6          1           0        1.534902   -0.511834    0.884227
 ---------------------------------------------------------------------

 SCF Done:  E(RB2PLYPD3) =  -132.530984548     A.U. after   12 cycles
 E2(B2PLYPD3) =    -0.1810483370D+00 E(B2PLYPD3) =    -0.13271203288541D+03

 The electronic state is 1-A.
 Alpha  occ. eigenvalues --  -14.84267 -10.67282 -10.66274  -1.04004  -0.89412
 Alpha  occ. eigenvalues --   -0.59927  -0.55536  -0.52073  -0.44816  -0.39054
 Alpha  occ. eigenvalues --   -0.38565
 Alpha virt. eigenvalues --    0.03650   0.07111   0.08061   0.10132   0.11219
 Alpha virt. eigenvalues --    0.11889   0.15410   0.16105   0.16641   0.20003
 Alpha virt. eigenvalues --    0.20236   0.25675   0.32591   0.33681   0.35230

 Mulliken charges:
               1
     1  C   -0.084661
     2  C    0.000338
     3  N   -0.208266
     4  H    0.106175
     5  H    0.090111
     6  H    0.096303
 Sum of Mulliken charges =   0.00000

 Dipole moment (field-independent basis, Debye):
    X=              4.1251    Y=             -0.0180    Z=              0.0226  Tot=              4.1252
 Quadrupole moment (field-independent basis, Debye-Ang):
   XX=            -21.0340   YY=            -17.5256   ZZ=            -18.0059
   XY=             -0.2189   XZ=             -0.0523   YZ=             -0.0583

 Normal termination of Gaussian 09 at Wed Aug 26 12:12:07 2020.
