 Gaussian 09, Revision D.01,
 Gaussian 09:  ES64L-G09RevD.01 24-Apr-2013

 --------------------
 #p B2PLYPD3/Def2QZVP
 --------------------

 ------------
 cyanomethane
 ------------
 Symbolic Z-matrix:
 Charge =  0 Multiplicity = 1

                         Standard orientation:
 ---------------------------------------------------------------------
 Center     Atomic      Atomic             Coordinates (Angstroms)
 Number     Number       Type             X           Y           Z
 ---------------------------------------------------------------------
      1          6           0       -1.166511    0.015188   -0.019279
      2          6           0        0.260263   -0.001865    0.062556
      3          7           0        1.421290   -0.000186   -0.031547
      4          1           0       -1.486959   -0.160761    0.906322
      5          1           0       -1.510156   -0.845378   -0.578014
      6          1           0       -1.514425    0.927502   -0.367141
 ---------------------------------------------------------------------

 SCF Done:  E(RB2PLYPD3) =  -132.523630674     A.U. after   11 cycles
 E2(B2PLYPD3) =    -0.1809212931D+00 E(B2PLYPD3) =    -0.13270455196673D+03

 The electronic state is 1-A.
 Alpha  occ. eigenvalues --  -14.84324 -10.66246 -10.65234  -1.03773  -0.91143
 Alpha  occ. eigenvalues --   -0.60344  -0.56602  -0.54487  -0.44757  -0.38882
 Alpha  occ. eigenvalues --   -0.38543
 Alpha virt. eigenvalues --    0.03790   0.07839   0.08773   0.10081   0.11169
 Alpha virt. eigenvalues --    0.11524   0.15102   0.15791   0.17164   0.20126
 Alpha virt. eigenvalues --    0.20233   0.26098   0.33405   0.34578   0.35745

 Mulliken charges:
               1
     1  C   -0.075301
     2  C    0.002855
     3  N   -0.214588
     4  H    0.093614
     5  H    0.092996
     6  H    0.100424
 Sum of Mulliken charges =   0.00000

 Dipole moment (field-independent basis, Debye):
    X=             -4.1307    Y=             -0.0252    Z=              0.0962  Tot=              4.1319
 Quadrupole moment (field-independent basis, Debye-Ang):
   XX=            -20.9740   YY=            -17.4401   ZZ=            -17.8633
   XY=              0.0606   XZ=              0.0531   YZ=             -0.0548

 Normal termination of Gaussian 09 at Wed Aug 26 21:24:04 2020.
