 Gaussian 09, Revision D.01,
 Gaussian 09:  ES64L-G09RevD.01 24-Apr-2013

 --------------------
 #p B2PLYPD3/Def2QZVP
 --------------------

 ------------
 cyanomethane
 ------------
 Symbolic Z-matrix:
 Charge =  0 Multiplicity = 1

                         Standard orientation:
 ---------------------------------------------------------------------
 Center     Atomic      Atomic             Coordinates (Angstroms)
 Number     Number       Type             X           Y           Z
 ---------------------------------------------------------------------
      1          6           0        1.180399    0.002239   -0.024227
      2          6           0       -0.285478    0.007183   -0.003930
      3          7           0       -1.445902    0.001690   -0.002000
      4          1           0        1.681920    1.005355   -0.141320
      5          1           0        1.607985   -0.737280   -0.627909
      6          1           0        1.461881   -0.336440    0.952175
 ---------------------------------------------------------------------

 SCF Done:  E(RB2PLYPD3) =  -132.528461320     A.U. after   12 cycles
 E2(B2PLYPD3) =    -0.1811540527D+00 E(B2PLYPD3) =    -0.13270961537286D+03

 The electronic state is 1-A.
 Alpha  occ. eigenvalues --  -14.84496 -10.66968 -10.66691  -1.03955  -0.89372
 Alpha  occ. eigenvalues --   -0.60620  -0.54273  -0.52752  -0.44936  -0.39249
 Alpha  occ. eigenvalues --   -0.38770
 Alpha virt. eigenvalues --    0.03705   0.07380   0.08143   0.10174   0.11136
 Alpha virt. eigenvalues --    0.11724   0.15392   0.15481   0.18086   0.20188
 Alpha virt. eigenvalues --    0.20277   0.25182   0.32249   0.33992   0.35527

 Mulliken charges:
               1
     1  C   -0.071964
     2  C    0.006043
     3  N   -0.208805
     4  H    0.094362
     5  H    0.093132
     6  H    0.087231
 Sum of Mulliken charges =   0.00000

 Dipole moment (field-independent basis, Debye):
    X=              4.1721    Y=             -0.0599    Z=              0.0808  Tot=              4.1734
 Quadrupole moment (field-independent basis, Debye-Ang):
   XX=            -20.7041   YY=            -17.6191   ZZ=            -18.1117
   XY=             -0.0304   XZ=              0.0662   YZ=              0.0400

 Normal termination of Gaussian 09 at Wed Aug 26 20:11:57 2020.
