 Gaussian 09, Revision D.01,
 Gaussian 09:  ES64L-G09RevD.01 24-Apr-2013

 --------------------
 #p B2PLYPD3/Def2QZVP
 --------------------

 ------------
 cyanomethane
 ------------
 Symbolic Z-matrix:
 Charge =  0 Multiplicity = 1

                         Standard orientation:
 ---------------------------------------------------------------------
 Center     Atomic      Atomic             Coordinates (Angstroms)
 Number     Number       Type             X           Y           Z
 ---------------------------------------------------------------------
      1          6           0        1.168013    0.016761   -0.012991
      2          6           0       -0.277875   -0.023152    0.006842
      3          7           0       -1.425179    0.008394   -0.002010
      4          1           0        1.518800    1.024178    0.030393
      5          1           0        1.555865   -0.511738   -0.842696
      6          1           0        1.560759   -0.532851    0.863268
 ---------------------------------------------------------------------

 SCF Done:  E(RB2PLYPD3) =  -132.534625907     A.U. after   11 cycles
 E2(B2PLYPD3) =    -0.1797653279D+00 E(B2PLYPD3) =    -0.13271439123479D+03

 The electronic state is 1-A.
 Alpha  occ. eigenvalues --  -14.83973 -10.66592 -10.65978  -1.04412  -0.89672
 Alpha  occ. eigenvalues --   -0.60117  -0.55214  -0.53154  -0.44774  -0.39352
 Alpha  occ. eigenvalues --   -0.39023
 Alpha virt. eigenvalues --    0.03825   0.07947   0.08268   0.10167   0.11401
 Alpha virt. eigenvalues --    0.11759   0.15513   0.16050   0.16868   0.20022
 Alpha virt. eigenvalues --    0.20120   0.25621   0.32947   0.34274   0.35448

 Mulliken charges:
               1
     1  C   -0.077266
     2  C   -0.001714
     3  N   -0.203528
     4  H    0.099892
     5  H    0.094824
     6  H    0.087792
 Sum of Mulliken charges =   0.00000

 Dipole moment (field-independent basis, Debye):
    X=              4.1178    Y=             -0.0343    Z=              0.0076  Tot=              4.1180
 Quadrupole moment (field-independent basis, Debye-Ang):
   XX=            -20.9286   YY=            -17.5769   ZZ=            -17.8518
   XY=             -0.0456   XZ=              0.0062   YZ=              0.0510

 Normal termination of Gaussian 09 at Wed Aug 26 12:46:41 2020.
