 Gaussian 09, Revision D.01,
 Gaussian 09:  ES64L-G09RevD.01 24-Apr-2013

 --------------------
 #p B2PLYPD3/Def2QZVP
 --------------------

 ------------
 cyanomethane
 ------------
 Symbolic Z-matrix:
 Charge =  0 Multiplicity = 1

                         Standard orientation:
 ---------------------------------------------------------------------
 Center     Atomic      Atomic             Coordinates (Angstroms)
 Number     Number       Type             X           Y           Z
 ---------------------------------------------------------------------
      1          6           0        1.151192   -0.022358   -0.006194
      2          6           0       -0.290048   -0.050077    0.027054
      3          7           0       -1.412447    0.041319   -0.020013
      4          1           0        1.757556    0.976429   -0.404948
      5          1           0        1.493374   -0.799240   -0.549697
      6          1           0        1.469329   -0.031819    0.969573
 ---------------------------------------------------------------------

 SCF Done:  E(RB2PLYPD3) =  -132.512253708     A.U. after   12 cycles
 E2(B2PLYPD3) =    -0.1786785374D+00 E(B2PLYPD3) =    -0.13269093224529D+03

 The electronic state is 1-A.
 Alpha  occ. eigenvalues --  -14.83588 -10.66612 -10.65483  -1.05424  -0.89806
 Alpha  occ. eigenvalues --   -0.60335  -0.56704  -0.50632  -0.44891  -0.40102
 Alpha  occ. eigenvalues --   -0.39195
 Alpha virt. eigenvalues --    0.02968   0.07098   0.09448   0.10159   0.11487
 Alpha virt. eigenvalues --    0.12168   0.15718   0.15847   0.17913   0.19848
 Alpha virt. eigenvalues --    0.20366   0.25882   0.31374   0.34141   0.36122

 Mulliken charges:
               1
     1  C   -0.083583
     2  C   -0.001749
     3  N   -0.189120
     4  H    0.079673
     5  H    0.100087
     6  H    0.094693
 Sum of Mulliken charges =   0.00000

 Dipole moment (field-independent basis, Debye):
    X=              4.0517    Y=             -0.1127    Z=              0.1009  Tot=              4.0546
 Quadrupole moment (field-independent basis, Debye-Ang):
   XX=            -20.6751   YY=            -17.7247   ZZ=            -17.7705
   XY=              0.3631   XZ=             -0.0743   YZ=              0.1981

 Normal termination of Gaussian 09 at Wed Aug 26 18:48:19 2020.
