 Gaussian 09, Revision D.01,
 Gaussian 09:  ES64L-G09RevD.01 24-Apr-2013

 --------------------
 #p B2PLYPD3/Def2QZVP
 --------------------

 ------------
 cyanomethane
 ------------
 Symbolic Z-matrix:
 Charge =  0 Multiplicity = 1

                         Standard orientation:
 ---------------------------------------------------------------------
 Center     Atomic      Atomic             Coordinates (Angstroms)
 Number     Number       Type             X           Y           Z
 ---------------------------------------------------------------------
      1          6           0        1.194975    0.012815    0.013191
      2          6           0       -0.276124    0.005173   -0.026518
      3          7           0       -1.439664   -0.005413    0.009626
      4          1           0        1.507569    1.015068   -0.145510
      5          1           0        1.564650   -0.675034   -0.802758
      6          1           0        1.492329   -0.410068    0.960847
 ---------------------------------------------------------------------

 SCF Done:  E(RB2PLYPD3) =  -132.532031128     A.U. after   12 cycles
 E2(B2PLYPD3) =    -0.1813351865D+00 E(B2PLYPD3) =    -0.13271336631488D+03

 The electronic state is 1-A.
 Alpha  occ. eigenvalues --  -14.84338 -10.67398 -10.66449  -1.03620  -0.89162
 Alpha  occ. eigenvalues --   -0.58722  -0.55433  -0.53221  -0.44649  -0.38924
 Alpha  occ. eigenvalues --   -0.38664
 Alpha virt. eigenvalues --    0.03701   0.07650   0.08257   0.10173   0.11060
 Alpha virt. eigenvalues --    0.11429   0.15129   0.15833   0.16065   0.20096
 Alpha virt. eigenvalues --    0.20179   0.25063   0.32257   0.33914   0.35146

 Mulliken charges:
               1
     1  C   -0.097010
     2  C   -0.002237
     3  N   -0.211825
     4  H    0.108060
     5  H    0.097392
     6  H    0.105620
 Sum of Mulliken charges =   0.00000

 Dipole moment (field-independent basis, Debye):
    X=              4.1312    Y=             -0.0032    Z=             -0.0053  Tot=              4.1312
 Quadrupole moment (field-independent basis, Debye-Ang):
   XX=            -21.2790   YY=            -17.6370   ZZ=            -17.8003
   XY=             -0.0828   XZ=              0.0123   YZ=             -0.0606

 Normal termination of Gaussian 09 at Wed Aug 26 14:55:19 2020.
