 Gaussian 09, Revision D.01,
 Gaussian 09:  ES64L-G09RevD.01 24-Apr-2013

 --------------------
 #p B2PLYPD3/Def2QZVP
 --------------------

 ------------
 cyanomethane
 ------------
 Symbolic Z-matrix:
 Charge =  0 Multiplicity = 1

                         Standard orientation:
 ---------------------------------------------------------------------
 Center     Atomic      Atomic             Coordinates (Angstroms)
 Number     Number       Type             X           Y           Z
 ---------------------------------------------------------------------
      1          6           0        1.164900   -0.013165   -0.008238
      2          6           0       -0.271531    0.036490    0.006546
      3          7           0       -1.426932   -0.016168    0.002006
      4          1           0        1.563030    1.001848   -0.008312
      5          1           0        1.477550   -0.519405   -0.855558
      6          1           0        1.587730   -0.509215    0.859972
 ---------------------------------------------------------------------

 SCF Done:  E(RB2PLYPD3) =  -132.533162671     A.U. after   11 cycles
 E2(B2PLYPD3) =    -0.1804513973D+00 E(B2PLYPD3) =    -0.13271361406779D+03

 The electronic state is 1-A.
 Alpha  occ. eigenvalues --  -14.84229 -10.66315 -10.66201  -1.04102  -0.90019
 Alpha  occ. eigenvalues --   -0.60454  -0.55145  -0.53613  -0.44832  -0.39041
 Alpha  occ. eigenvalues --   -0.38884
 Alpha virt. eigenvalues --    0.03848   0.07701   0.08198   0.10127   0.11435
 Alpha virt. eigenvalues --    0.11575   0.15612   0.16095   0.16724   0.20071
 Alpha virt. eigenvalues --    0.20157   0.25810   0.32965   0.34560   0.35353

 Mulliken charges:
               1
     1  C   -0.073673
     2  C    0.000363
     3  N   -0.208116
     4  H    0.091311
     5  H    0.098612
     6  H    0.091503
 Sum of Mulliken charges =   0.00000

 Dipole moment (field-independent basis, Debye):
    X=              4.1266    Y=              0.0151    Z=             -0.0072  Tot=              4.1266
 Quadrupole moment (field-independent basis, Debye-Ang):
   XX=            -20.8968   YY=            -17.7134   ZZ=            -17.7503
   XY=             -0.0784   XZ=              0.0837   YZ=              0.0464

 Normal termination of Gaussian 09 at Wed Aug 26 16:13:07 2020.
