 Gaussian 09, Revision D.01,
 Gaussian 09:  ES64L-G09RevD.01 24-Apr-2013

 --------------------
 #p B2PLYPD3/Def2QZVP
 --------------------

 ------------
 cyanomethane
 ------------
 Symbolic Z-matrix:
 Charge =  0 Multiplicity = 1

                         Standard orientation:
 ---------------------------------------------------------------------
 Center     Atomic      Atomic             Coordinates (Angstroms)
 Number     Number       Type             X           Y           Z
 ---------------------------------------------------------------------
      1          6           0        1.189996   -0.010860    0.008449
      2          6           0       -0.286139   -0.020740   -0.016477
      3          7           0       -1.436117    0.008832    0.010825
      4          1           0        1.581639    0.105737    1.015158
      5          1           0        1.487236    0.963921   -0.572812
      6          1           0        1.560803   -0.941883   -0.469949
 ---------------------------------------------------------------------

 SCF Done:  E(RB2PLYPD3) =  -132.529557786     A.U. after   12 cycles
 E2(B2PLYPD3) =    -0.1806636914D+00 E(B2PLYPD3) =    -0.13271022147756D+03

 The electronic state is 1-A.
 Alpha  occ. eigenvalues --  -14.84039 -10.68362 -10.66181  -1.04187  -0.88236
 Alpha  occ. eigenvalues --   -0.58843  -0.54134  -0.52238  -0.44674  -0.39258
 Alpha  occ. eigenvalues --   -0.38899
 Alpha virt. eigenvalues --    0.03489   0.07510   0.07942   0.10176   0.11282
 Alpha virt. eigenvalues --    0.11732   0.15088   0.15786   0.16549   0.19988
 Alpha virt. eigenvalues --    0.20135   0.24991   0.31947   0.33151   0.34764

 Mulliken charges:
               1
     1  C   -0.106807
     2  C   -0.000385
     3  N   -0.203677
     4  H    0.103955
     5  H    0.099717
     6  H    0.107197
 Sum of Mulliken charges =   0.00000

 Dipole moment (field-independent basis, Debye):
    X=              4.1025    Y=             -0.0033    Z=              0.0129  Tot=              4.1025
 Quadrupole moment (field-independent basis, Debye-Ang):
   XX=            -21.2759   YY=            -17.5950   ZZ=            -17.8880
   XY=              0.0190   XZ=              0.1815   YZ=              0.0679

 Normal termination of Gaussian 09 at Wed Aug 26 11:28:30 2020.
