 Gaussian 09, Revision D.01,
 Gaussian 09:  ES64L-G09RevD.01 24-Apr-2013

 --------------------
 #p B2PLYPD3/Def2QZVP
 --------------------

 ------------
 cyanomethane
 ------------
 Symbolic Z-matrix:
 Charge =  0 Multiplicity = 1

                         Standard orientation:
 ---------------------------------------------------------------------
 Center     Atomic      Atomic             Coordinates (Angstroms)
 Number     Number       Type             X           Y           Z
 ---------------------------------------------------------------------
      1          6           0        1.165478   -0.010812    0.018721
      2          6           0       -0.289058   -0.049794    0.013291
      3          7           0       -1.435667    0.018438   -0.008123
      4          1           0        1.601424    0.205123    0.995618
      5          1           0        1.490593    0.978107   -0.659535
      6          1           0        1.699131   -0.948664   -0.471300
 ---------------------------------------------------------------------

 SCF Done:  E(RB2PLYPD3) =  -132.516766180     A.U. after   12 cycles
 E2(B2PLYPD3) =    -0.1814443762D+00 E(B2PLYPD3) =    -0.13269821055662D+03

 The electronic state is 1-A.
 Alpha  occ. eigenvalues --  -14.84246 -10.69463 -10.66377  -1.04502  -0.87555
 Alpha  occ. eigenvalues --   -0.59688  -0.52877  -0.50565  -0.44962  -0.39341
 Alpha  occ. eigenvalues --   -0.38644
 Alpha virt. eigenvalues --    0.02988   0.06289   0.07306   0.10147   0.11482
 Alpha virt. eigenvalues --    0.12143   0.15231   0.16038   0.17291   0.19986
 Alpha virt. eigenvalues --    0.20093   0.25408   0.31145   0.31903   0.34614

 Mulliken charges:
               1
     1  C   -0.109451
     2  C    0.009551
     3  N   -0.199611
     4  H    0.106146
     5  H    0.092644
     6  H    0.100722
 Sum of Mulliken charges =   0.00000

 Dipole moment (field-independent basis, Debye):
    X=              4.0794    Y=             -0.0030    Z=              0.0448  Tot=              4.0796
 Quadrupole moment (field-independent basis, Debye-Ang):
   XX=            -21.0272   YY=            -17.8123   ZZ=            -17.9798
   XY=              0.0286   XZ=              0.0286   YZ=              0.1170

 Normal termination of Gaussian 09 at Wed Aug 26 23:49:51 2020.
