 Gaussian 09, Revision D.01,
 Gaussian 09:  ES64L-G09RevD.01 24-Apr-2013

 --------------------
 #p B2PLYPD3/Def2QZVP
 --------------------

 ------------
 cyanomethane
 ------------
 Symbolic Z-matrix:
 Charge =  0 Multiplicity = 1

                         Standard orientation:
 ---------------------------------------------------------------------
 Center     Atomic      Atomic             Coordinates (Angstroms)
 Number     Number       Type             X           Y           Z
 ---------------------------------------------------------------------
      1          6           0        1.171368   -0.011910   -0.034253
      2          6           0       -0.268185   -0.052134    0.053418
      3          7           0       -1.429512    0.025391   -0.019267
      4          1           0        1.603528    0.000627    0.969988
      5          1           0        1.461343    0.989469   -0.410254
      6          1           0        1.522612   -0.783563   -0.539856
 ---------------------------------------------------------------------

 SCF Done:  E(RB2PLYPD3) =  -132.524292489     A.U. after   11 cycles
 E2(B2PLYPD3) =    -0.1813629598D+00 E(B2PLYPD3) =    -0.13270565544905D+03

 The electronic state is 1-A.
 Alpha  occ. eigenvalues --  -14.84477 -10.66468 -10.66179  -1.03722  -0.90219
 Alpha  occ. eigenvalues --   -0.60448  -0.56727  -0.52597  -0.44833  -0.39022
 Alpha  occ. eigenvalues --   -0.38405
 Alpha virt. eigenvalues --    0.03647   0.07404   0.08455   0.10131   0.10934
 Alpha virt. eigenvalues --    0.11718   0.15246   0.15980   0.16843   0.20043
 Alpha virt. eigenvalues --    0.20190   0.25936   0.32786   0.33818   0.35799

 Mulliken charges:
               1
     1  C   -0.076197
     2  C    0.003971
     3  N   -0.213343
     4  H    0.084273
     5  H    0.097371
     6  H    0.103925
 Sum of Mulliken charges =   0.00000

 Dipole moment (field-independent basis, Debye):
    X=              4.1286    Y=             -0.0094    Z=              0.0581  Tot=              4.1290
 Quadrupole moment (field-independent basis, Debye-Ang):
   XX=            -20.9565   YY=            -17.5480   ZZ=            -17.9329
   XY=              0.1349   XZ=              0.0634   YZ=              0.1299

 Normal termination of Gaussian 09 at Wed Aug 26 23:36:03 2020.
