 Gaussian 09, Revision D.01,
 Gaussian 09:  ES64L-G09RevD.01 24-Apr-2013

 --------------------
 #p B2PLYPD3/Def2QZVP
 --------------------

 ------------
 cyanomethane
 ------------
 Symbolic Z-matrix:
 Charge =  0 Multiplicity = 1

                         Standard orientation:
 ---------------------------------------------------------------------
 Center     Atomic      Atomic             Coordinates (Angstroms)
 Number     Number       Type             X           Y           Z
 ---------------------------------------------------------------------
      1          6           0       -1.177748    0.011584    0.004253
      2          6           0        0.278005   -0.005767    0.020269
      3          7           0        1.444543    0.005324   -0.013911
      4          1           0       -1.518829   -0.405887    0.948427
      5          1           0       -1.570754   -0.696885   -0.818880
      6          1           0       -1.623764    1.030606   -0.179300
 ---------------------------------------------------------------------

 SCF Done:  E(RB2PLYPD3) =  -132.529481568     A.U. after   12 cycles
 E2(B2PLYPD3) =    -0.1821136656D+00 E(B2PLYPD3) =    -0.13271159523333D+03

 The electronic state is 1-A.
 Alpha  occ. eigenvalues --  -14.84629 -10.68162 -10.66733  -1.03663  -0.88576
 Alpha  occ. eigenvalues --   -0.59605  -0.53896  -0.52287  -0.44902  -0.38826
 Alpha  occ. eigenvalues --   -0.38573
 Alpha virt. eigenvalues --    0.03484   0.06804   0.07640   0.10110   0.11263
 Alpha virt. eigenvalues --    0.11581   0.15320   0.15795   0.16897   0.20093
 Alpha virt. eigenvalues --    0.20193   0.25387   0.32196   0.33482   0.34586

 Mulliken charges:
               1
     1  C   -0.092287
     2  C    0.003626
     3  N   -0.210398
     4  H    0.101854
     5  H    0.095096
     6  H    0.102109
 Sum of Mulliken charges =   0.00000

 Dipole moment (field-independent basis, Debye):
    X=             -4.1364    Y=             -0.0260    Z=              0.0294  Tot=              4.1365
 Quadrupole moment (field-independent basis, Debye-Ang):
   XX=            -21.0435   YY=            -17.7799   ZZ=            -17.9231
   XY=             -0.0395   XZ=              0.1053   YZ=             -0.0608

 Normal termination of Gaussian 09 at Wed Aug 26 15:47:41 2020.
