 Gaussian 09, Revision D.01,
 Gaussian 09:  ES64L-G09RevD.01 24-Apr-2013

 --------------------
 #p B2PLYPD3/Def2QZVP
 --------------------

 ------------
 cyanomethane
 ------------
 Symbolic Z-matrix:
 Charge =  0 Multiplicity = 1

                         Standard orientation:
 ---------------------------------------------------------------------
 Center     Atomic      Atomic             Coordinates (Angstroms)
 Number     Number       Type             X           Y           Z
 ---------------------------------------------------------------------
      1          6           0        1.167443    0.003566    0.009674
      2          6           0       -0.280514   -0.018870    0.003533
      3          7           0       -1.431112    0.011953   -0.002355
      4          1           0        1.595600    1.017838   -0.214457
      5          1           0        1.537810   -0.675681   -0.788304
      6          1           0        1.562799   -0.334009    0.940005
 ---------------------------------------------------------------------

 SCF Done:  E(RB2PLYPD3) =  -132.534002730     A.U. after   12 cycles
 E2(B2PLYPD3) =    -0.1803583793D+00 E(B2PLYPD3) =    -0.13271436110888D+03

 The electronic state is 1-A.
 Alpha  occ. eigenvalues --  -14.84155 -10.67308 -10.66189  -1.04323  -0.89100
 Alpha  occ. eigenvalues --   -0.60117  -0.54073  -0.52917  -0.44859  -0.39208
 Alpha  occ. eigenvalues --   -0.39005
 Alpha virt. eigenvalues --    0.03677   0.07436   0.08029   0.10146   0.11482
 Alpha virt. eigenvalues --    0.11705   0.15505   0.16136   0.16905   0.20050
 Alpha virt. eigenvalues --    0.20106   0.25555   0.32777   0.34021   0.34892

 Mulliken charges:
               1
     1  C   -0.081981
     2  C    0.000300
     3  N   -0.203652
     4  H    0.094239
     5  H    0.093150
     6  H    0.097945
 Sum of Mulliken charges =   0.00000

 Dipole moment (field-independent basis, Debye):
    X=              4.1180    Y=             -0.0296    Z=              0.0025  Tot=              4.1181
 Quadrupole moment (field-independent basis, Debye-Ang):
   XX=            -20.9133   YY=            -17.7829   ZZ=            -17.7786
   XY=              0.0810   XZ=             -0.0093   YZ=             -0.0266

 Normal termination of Gaussian 09 at Wed Aug 26 23:58:42 2020.
