 Gaussian 09, Revision D.01,
 Gaussian 09:  ES64L-G09RevD.01 24-Apr-2013

 --------------------
 #p B2PLYPD3/Def2QZVP
 --------------------

 ------------
 cyanomethane
 ------------
 Symbolic Z-matrix:
 Charge =  0 Multiplicity = 1

                         Standard orientation:
 ---------------------------------------------------------------------
 Center     Atomic      Atomic             Coordinates (Angstroms)
 Number     Number       Type             X           Y           Z
 ---------------------------------------------------------------------
      1          6           0        1.179624   -0.008773   -0.006095
      2          6           0       -0.292371    0.036990   -0.005474
      3          7           0       -1.438706   -0.010123    0.003478
      4          1           0        1.525319   -0.546443   -0.843467
      5          1           0        1.522015   -0.544151    0.873088
      6          1           0        1.700091    0.992149    0.015447
 ---------------------------------------------------------------------

 SCF Done:  E(RB2PLYPD3) =  -132.533149169     A.U. after   12 cycles
 E2(B2PLYPD3) =    -0.1799446266D+00 E(B2PLYPD3) =    -0.13271309379584D+03

 The electronic state is 1-A.
 Alpha  occ. eigenvalues --  -14.84138 -10.67195 -10.66268  -1.04468  -0.88900
 Alpha  occ. eigenvalues --   -0.60037  -0.54079  -0.52822  -0.44874  -0.39445
 Alpha  occ. eigenvalues --   -0.39307
 Alpha virt. eigenvalues --    0.03733   0.07592   0.08307   0.10249   0.11435
 Alpha virt. eigenvalues --    0.11596   0.15346   0.16345   0.17031   0.20012
 Alpha virt. eigenvalues --    0.20059   0.25136   0.32345   0.34570   0.35151

 Mulliken charges:
               1
     1  C   -0.076729
     2  C    0.000424
     3  N   -0.201414
     4  H    0.096012
     5  H    0.092367
     6  H    0.089339
 Sum of Mulliken charges =   0.00000

 Dipole moment (field-independent basis, Debye):
    X=              4.1315    Y=             -0.0225    Z=              0.0004  Tot=              4.1315
 Quadrupole moment (field-independent basis, Debye-Ang):
   XX=            -20.7678   YY=            -17.7824   ZZ=            -17.8466
   XY=             -0.0031   XZ=              0.0357   YZ=              0.0314

 Normal termination of Gaussian 09 at Wed Aug 26 12:53:08 2020.
