 Gaussian 09, Revision D.01,
 Gaussian 09:  ES64L-G09RevD.01 24-Apr-2013

 --------------------
 #p B2PLYPD3/Def2QZVP
 --------------------

 ------------
 cyanomethane
 ------------
 Symbolic Z-matrix:
 Charge =  0 Multiplicity = 1

                         Standard orientation:
 ---------------------------------------------------------------------
 Center     Atomic      Atomic             Coordinates (Angstroms)
 Number     Number       Type             X           Y           Z
 ---------------------------------------------------------------------
      1          6           0        1.201690   -0.030340    0.025371
      2          6           0       -0.262457   -0.001978   -0.068990
      3          7           0       -1.455540    0.005402    0.030624
      4          1           0        1.554820    0.908620   -0.328328
      5          1           0        1.521740   -0.683747   -0.531421
      6          1           0        1.476829   -0.068781    0.907098
 ---------------------------------------------------------------------

 SCF Done:  E(RB2PLYPD3) =  -132.479354443     A.U. after   12 cycles
 E2(B2PLYPD3) =    -0.1832806932D+00 E(B2PLYPD3) =    -0.13266263513610D+03

 The electronic state is 1-A.
 Alpha  occ. eigenvalues --  -14.85413 -10.67496 -10.63567  -1.02577  -0.92445
 Alpha  occ. eigenvalues --   -0.61326  -0.59706  -0.54472  -0.44929  -0.38551
 Alpha  occ. eigenvalues --   -0.38102
 Alpha virt. eigenvalues --    0.03940   0.07459   0.08419   0.10191   0.10751
 Alpha virt. eigenvalues --    0.11311   0.15532   0.15771   0.16624   0.20198
 Alpha virt. eigenvalues --    0.20381   0.25366   0.32383   0.34749   0.36818

 Mulliken charges:
               1
     1  C   -0.075907
     2  C    0.011574
     3  N   -0.226132
     4  H    0.078909
     5  H    0.108256
     6  H    0.103301
 Sum of Mulliken charges =   0.00000

 Dipole moment (field-independent basis, Debye):
    X=              4.2039    Y=              0.0199    Z=             -0.0285  Tot=              4.2040
 Quadrupole moment (field-independent basis, Debye-Ang):
   XX=            -20.6592   YY=            -17.7784   ZZ=            -17.7164
   XY=              0.1132   XZ=              0.0944   YZ=              0.0995

 Normal termination of Gaussian 09 at Wed Aug 26 23:52:38 2020.
