 Gaussian 09, Revision D.01,
 Gaussian 09:  ES64L-G09RevD.01 24-Apr-2013

 --------------------
 #p B2PLYPD3/Def2QZVP
 --------------------

 ------------
 cyanomethane
 ------------
 Symbolic Z-matrix:
 Charge =  0 Multiplicity = 1

                         Standard orientation:
 ---------------------------------------------------------------------
 Center     Atomic      Atomic             Coordinates (Angstroms)
 Number     Number       Type             X           Y           Z
 ---------------------------------------------------------------------
      1          6           0       -1.184262   -0.012230   -0.006833
      2          6           0        0.284225    0.014764   -0.003153
      3          7           0        1.435286   -0.003464    0.004105
      4          1           0       -1.569962   -0.074451    1.005664
      5          1           0       -1.501769   -0.854852   -0.551614
      6          1           0       -1.575054    0.938350   -0.422868
 ---------------------------------------------------------------------

 SCF Done:  E(RB2PLYPD3) =  -132.534576346     A.U. after   11 cycles
 E2(B2PLYPD3) =    -0.1800963775D+00 E(B2PLYPD3) =    -0.13271467272366D+03

 The electronic state is 1-A.
 Alpha  occ. eigenvalues --  -14.84093 -10.67013 -10.66179  -1.04214  -0.89212
 Alpha  occ. eigenvalues --   -0.59517  -0.54971  -0.53143  -0.44743  -0.39299
 Alpha  occ. eigenvalues --   -0.39089
 Alpha virt. eigenvalues --    0.03784   0.07886   0.08351   0.10214   0.11292
 Alpha virt. eigenvalues --    0.11562   0.15311   0.16291   0.16411   0.20020
 Alpha virt. eigenvalues --    0.20116   0.25147   0.32615   0.34295   0.35254

 Mulliken charges:
               1
     1  C   -0.083382
     2  C   -0.003022
     3  N   -0.204579
     4  H    0.093680
     5  H    0.102193
     6  H    0.095109
 Sum of Mulliken charges =   0.00000

 Dipole moment (field-independent basis, Debye):
    X=             -4.1289    Y=              0.0008    Z=              0.0131  Tot=              4.1290
 Quadrupole moment (field-independent basis, Debye-Ang):
   XX=            -20.9989   YY=            -17.6342   ZZ=            -17.8377
   XY=             -0.0276   XZ=             -0.1025   YZ=              0.0536

 Normal termination of Gaussian 09 at Wed Aug 26 23:59:50 2020.
