 Gaussian 09, Revision D.01,
 Gaussian 09:  ES64L-G09RevD.01 24-Apr-2013

 --------------------
 #p B2PLYPD3/Def2QZVP
 --------------------

 ------------
 cyanomethane
 ------------
 Symbolic Z-matrix:
 Charge =  0 Multiplicity = 1

                         Standard orientation:
 ---------------------------------------------------------------------
 Center     Atomic      Atomic             Coordinates (Angstroms)
 Number     Number       Type             X           Y           Z
 ---------------------------------------------------------------------
      1          6           0       -1.164431   -0.016190   -0.006151
      2          6           0        0.282350    0.009282   -0.015557
      3          7           0        1.423327   -0.003086    0.010098
      4          1           0       -1.573516    0.055079    1.003440
      5          1           0       -1.549177   -0.866812   -0.442644
      6          1           0       -1.548112    0.874785   -0.501233
 ---------------------------------------------------------------------

 SCF Done:  E(RB2PLYPD3) =  -132.533721686     A.U. after   11 cycles
 E2(B2PLYPD3) =    -0.1791631410D+00 E(B2PLYPD3) =    -0.13271288482655D+03

 The electronic state is 1-A.
 Alpha  occ. eigenvalues --  -14.83848 -10.66335 -10.65851  -1.04704  -0.89757
 Alpha  occ. eigenvalues --   -0.60552  -0.55164  -0.53037  -0.44809  -0.39569
 Alpha  occ. eigenvalues --   -0.39227
 Alpha virt. eigenvalues --    0.03853   0.07982   0.08510   0.10175   0.11448
 Alpha virt. eigenvalues --    0.11839   0.15612   0.16338   0.16970   0.19979
 Alpha virt. eigenvalues --    0.20102   0.25586   0.33125   0.34352   0.35592

 Mulliken charges:
               1
     1  C   -0.070002
     2  C   -0.001916
     3  N   -0.199669
     4  H    0.086855
     5  H    0.095997
     6  H    0.088736
 Sum of Mulliken charges =   0.00000

 Dipole moment (field-independent basis, Debye):
    X=             -4.1153    Y=              0.0149    Z=             -0.0035  Tot=              4.1153
 Quadrupole moment (field-independent basis, Debye-Ang):
   XX=            -20.7928   YY=            -17.6281   ZZ=            -17.8120
   XY=             -0.0099   XZ=             -0.1119   YZ=              0.0517

 Normal termination of Gaussian 09 at Wed Aug 26 12:21:42 2020.
