 Gaussian 09, Revision D.01,
 Gaussian 09:  ES64L-G09RevD.01 24-Apr-2013

 --------------------
 #p B2PLYPD3/Def2QZVP
 --------------------

 ------------
 cyanomethane
 ------------
 Symbolic Z-matrix:
 Charge =  0 Multiplicity = 1

                         Standard orientation:
 ---------------------------------------------------------------------
 Center     Atomic      Atomic             Coordinates (Angstroms)
 Number     Number       Type             X           Y           Z
 ---------------------------------------------------------------------
      1          6           0        1.187740    0.006192   -0.008670
      2          6           0       -0.275034   -0.017664   -0.019222
      3          7           0       -1.441334    0.010352    0.016503
      4          1           0        1.459507   -0.515998   -0.867051
      5          1           0        1.591842   -0.529346    0.895909
      6          1           0        1.561756    1.041712    0.022980
 ---------------------------------------------------------------------

 SCF Done:  E(RB2PLYPD3) =  -132.530317207     A.U. after   12 cycles
 E2(B2PLYPD3) =    -0.1816422404D+00 E(B2PLYPD3) =    -0.13271195944779D+03

 The electronic state is 1-A.
 Alpha  occ. eigenvalues --  -14.84505 -10.67249 -10.66595  -1.03577  -0.89327
 Alpha  occ. eigenvalues --   -0.59266  -0.55339  -0.52962  -0.44762  -0.38837
 Alpha  occ. eigenvalues --   -0.38639
 Alpha virt. eigenvalues --    0.03650   0.07211   0.08379   0.10139   0.11078
 Alpha virt. eigenvalues --    0.11454   0.15246   0.15671   0.16601   0.20093
 Alpha virt. eigenvalues --    0.20212   0.25244   0.32398   0.34032   0.35038

 Mulliken charges:
               1
     1  C   -0.090528
     2  C   -0.000390
     3  N   -0.212471
     4  H    0.105769
     5  H    0.095448
     6  H    0.102172
 Sum of Mulliken charges =   0.00000

 Dipole moment (field-independent basis, Debye):
    X=              4.1391    Y=             -0.0226    Z=             -0.0252  Tot=              4.1392
 Quadrupole moment (field-independent basis, Debye-Ang):
   XX=            -21.1279   YY=            -17.7162   ZZ=            -17.8123
   XY=              0.0619   XZ=              0.1846   YZ=              0.0736

 Normal termination of Gaussian 09 at Wed Aug 26 11:01:35 2020.
