 Gaussian 09, Revision D.01,
 Gaussian 09:  ES64L-G09RevD.01 24-Apr-2013

 --------------------
 #p B2PLYPD3/Def2QZVP
 --------------------

 ------------
 cyanomethane
 ------------
 Symbolic Z-matrix:
 Charge =  0 Multiplicity = 1

                         Standard orientation:
 ---------------------------------------------------------------------
 Center     Atomic      Atomic             Coordinates (Angstroms)
 Number     Number       Type             X           Y           Z
 ---------------------------------------------------------------------
      1          6           0       -1.182816   -0.005915   -0.012137
      2          6           0        0.283863    0.015151    0.002664
      3          7           0        1.433202   -0.005580    0.000470
      4          1           0       -1.552166   -0.113141    0.996514
      5          1           0       -1.521618   -0.830660   -0.561196
      6          1           0       -1.564914    0.927442   -0.381771
 ---------------------------------------------------------------------

 SCF Done:  E(RB2PLYPD3) =  -132.534874464     A.U. after   11 cycles
 E2(B2PLYPD3) =    -0.1797563281D+00 E(B2PLYPD3) =    -0.13271463079255D+03

 The electronic state is 1-A.
 Alpha  occ. eigenvalues --  -14.84039 -10.66511 -10.66111  -1.04287  -0.89575
 Alpha  occ. eigenvalues --   -0.59769  -0.55176  -0.53581  -0.44743  -0.39375
 Alpha  occ. eigenvalues --   -0.39157
 Alpha virt. eigenvalues --    0.03866   0.08210   0.08431   0.10221   0.11278
 Alpha virt. eigenvalues --    0.11562   0.15386   0.16183   0.16629   0.20020
 Alpha virt. eigenvalues --    0.20115   0.25185   0.32831   0.34555   0.35497

 Mulliken charges:
               1
     1  C   -0.076322
     2  C   -0.003455
     3  N   -0.204161
     4  H    0.090200
     5  H    0.098393
     6  H    0.095345
 Sum of Mulliken charges =   0.00000

 Dipole moment (field-independent basis, Debye):
    X=             -4.1335    Y=              0.0023    Z=              0.0205  Tot=              4.1336
 Quadrupole moment (field-independent basis, Debye-Ang):
   XX=            -20.9260   YY=            -17.6083   ZZ=            -17.8266
   XY=              0.0132   XZ=             -0.0680   YZ=              0.0289

 Normal termination of Gaussian 09 at Wed Aug 26 10:22:57 2020.
