 Gaussian 09, Revision D.01,
 Gaussian 09:  ES64L-G09RevD.01 24-Apr-2013

 --------------------
 #p B2PLYPD3/Def2QZVP
 --------------------

 ------------
 cyanomethane
 ------------
 Symbolic Z-matrix:
 Charge =  0 Multiplicity = 1

                         Standard orientation:
 ---------------------------------------------------------------------
 Center     Atomic      Atomic             Coordinates (Angstroms)
 Number     Number       Type             X           Y           Z
 ---------------------------------------------------------------------
      1          6           0       -1.174540    0.002078    0.002398
      2          6           0        0.277420    0.021543   -0.010365
      3          7           0        1.443923   -0.017033    0.010578
      4          1           0       -1.473712    0.901369   -0.496324
      5          1           0       -1.651472   -0.029824    1.006942
      6          1           0       -1.599553   -0.894037   -0.536860
 ---------------------------------------------------------------------

 SCF Done:  E(RB2PLYPD3) =  -132.530364113     A.U. after   12 cycles
 E2(B2PLYPD3) =    -0.1819333930D+00 E(B2PLYPD3) =    -0.13271229750585D+03

 The electronic state is 1-A.
 Alpha  occ. eigenvalues --  -14.84666 -10.67536 -10.66758  -1.03695  -0.89031
 Alpha  occ. eigenvalues --   -0.60205  -0.54278  -0.52420  -0.44948  -0.38791
 Alpha  occ. eigenvalues --   -0.38686
 Alpha virt. eigenvalues --    0.03598   0.06826   0.07889   0.10082   0.11261
 Alpha virt. eigenvalues --    0.11582   0.15338   0.15954   0.17079   0.20061
 Alpha virt. eigenvalues --    0.20264   0.25489   0.32457   0.34119   0.34640

 Mulliken charges:
               1
     1  C   -0.081754
     2  C    0.003822
     3  N   -0.210917
     4  H    0.100322
     5  H    0.094436
     6  H    0.094092
 Sum of Mulliken charges =   0.00000

 Dipole moment (field-independent basis, Debye):
    X=             -4.1469    Y=              0.0304    Z=             -0.0156  Tot=              4.1470
 Quadrupole moment (field-independent basis, Debye-Ang):
   XX=            -20.8864   YY=            -17.7962   ZZ=            -17.9315
   XY=              0.1775   XZ=             -0.1485   YZ=             -0.0496

 Normal termination of Gaussian 09 at Wed Aug 26 11:58:52 2020.
