 Gaussian 09, Revision D.01,
 Gaussian 09:  ES64L-G09RevD.01 24-Apr-2013

 --------------------
 #p B2PLYPD3/Def2QZVP
 --------------------

 ------------
 cyanomethane
 ------------
 Symbolic Z-matrix:
 Charge =  0 Multiplicity = 1

                         Standard orientation:
 ---------------------------------------------------------------------
 Center     Atomic      Atomic             Coordinates (Angstroms)
 Number     Number       Type             X           Y           Z
 ---------------------------------------------------------------------
      1          6           0       -1.182193    0.006341   -0.006924
      2          6           0        0.282578   -0.012845    0.022121
      3          7           0        1.430151    0.004479   -0.012732
      4          1           0       -1.570336   -0.751171   -0.706267
      5          1           0       -1.524013    0.994355   -0.294595
      6          1           0       -1.519014   -0.235510    0.998803
 ---------------------------------------------------------------------

 SCF Done:  E(RB2PLYPD3) =  -132.535575825     A.U. after   12 cycles
 E2(B2PLYPD3) =    -0.1799447785D+00 E(B2PLYPD3) =    -0.13271552060348D+03

 The electronic state is 1-A.
 Alpha  occ. eigenvalues --  -14.83956 -10.67251 -10.66019  -1.04313  -0.89070
 Alpha  occ. eigenvalues --   -0.59167  -0.54268  -0.53725  -0.44692  -0.39242
 Alpha  occ. eigenvalues --   -0.39161
 Alpha virt. eigenvalues --    0.03739   0.07943   0.08288   0.10189   0.11466
 Alpha virt. eigenvalues --    0.11513   0.15337   0.15869   0.16612   0.20052
 Alpha virt. eigenvalues --    0.20078   0.25247   0.32729   0.34399   0.34771

 Mulliken charges:
               1
     1  C   -0.091661
     2  C   -0.003706
     3  N   -0.203226
     4  H    0.098522
     5  H    0.101585
     6  H    0.098487
 Sum of Mulliken charges =   0.00000

 Dipole moment (field-independent basis, Debye):
    X=             -4.1101    Y=             -0.0070    Z=              0.0258  Tot=              4.1102
 Quadrupole moment (field-independent basis, Debye-Ang):
   XX=            -21.1135   YY=            -17.6762   ZZ=            -17.7303
   XY=              0.0062   XZ=              0.0867   YZ=             -0.0124

 Normal termination of Gaussian 09 at Wed Aug 26 23:46:38 2020.
