 Gaussian 09, Revision D.01,
 Gaussian 09:  ES64L-G09RevD.01 24-Apr-2013

 --------------------
 #p B2PLYPD3/Def2QZVP
 --------------------

 ------------
 cyanomethane
 ------------
 Symbolic Z-matrix:
 Charge =  0 Multiplicity = 1

                         Standard orientation:
 ---------------------------------------------------------------------
 Center     Atomic      Atomic             Coordinates (Angstroms)
 Number     Number       Type             X           Y           Z
 ---------------------------------------------------------------------
      1          6           0        1.175194    0.003481   -0.012517
      2          6           0       -0.265973    0.026114    0.023738
      3          7           0       -1.433943   -0.015026   -0.008151
      4          1           0        1.570162   -0.256195    0.962330
      5          1           0        1.501190    0.940470   -0.290900
      6          1           0        1.510925   -0.756658   -0.681698
 ---------------------------------------------------------------------

 SCF Done:  E(RB2PLYPD3) =  -132.531273355     A.U. after   11 cycles
 E2(B2PLYPD3) =    -0.1813973663D+00 E(B2PLYPD3) =    -0.13271267072179D+03

 The electronic state is 1-A.
 Alpha  occ. eigenvalues --  -14.84517 -10.66533 -10.66120  -1.03562  -0.90276
 Alpha  occ. eigenvalues --   -0.60161  -0.55846  -0.53910  -0.44800  -0.38774
 Alpha  occ. eigenvalues --   -0.38568
 Alpha virt. eigenvalues --    0.03852   0.07626   0.08279   0.10131   0.11114
 Alpha virt. eigenvalues --    0.11472   0.15501   0.16041   0.16334   0.20129
 Alpha virt. eigenvalues --    0.20223   0.25671   0.32882   0.34602   0.35400

 Mulliken charges:
               1
     1  C   -0.074694
     2  C    0.000260
     3  N   -0.214664
     4  H    0.091781
     5  H    0.100173
     6  H    0.097144
 Sum of Mulliken charges =   0.00000

 Dipole moment (field-independent basis, Debye):
    X=              4.1483    Y=              0.0095    Z=              0.0131  Tot=              4.1483
 Quadrupole moment (field-independent basis, Debye-Ang):
   XX=            -20.9936   YY=            -17.6431   ZZ=            -17.8161
   XY=             -0.1224   XZ=              0.0178   YZ=             -0.0158

 Normal termination of Gaussian 09 at Wed Aug 26 15:26:29 2020.
