 Gaussian 09, Revision D.01,
 Gaussian 09:  ES64L-G09RevD.01 24-Apr-2013

 --------------------
 #p B2PLYPD3/Def2QZVP
 --------------------

 ------------
 cyanomethane
 ------------
 Symbolic Z-matrix:
 Charge =  0 Multiplicity = 1

                         Standard orientation:
 ---------------------------------------------------------------------
 Center     Atomic      Atomic             Coordinates (Angstroms)
 Number     Number       Type             X           Y           Z
 ---------------------------------------------------------------------
      1          6           0        1.162122    0.010604   -0.013011
      2          6           0       -0.278670   -0.045151   -0.040329
      3          7           0       -1.451444    0.037662    0.026278
      4          1           0        1.432113   -0.788531   -0.605583
      5          1           0        1.624317   -0.237250    1.005691
      6          1           0        1.802967    0.969429   -0.264016
 ---------------------------------------------------------------------

 SCF Done:  E(RB2PLYPD3) =  -132.512491117     A.U. after   13 cycles
 E2(B2PLYPD3) =    -0.1836964033D+00 E(B2PLYPD3) =    -0.13269618752060D+03

 The electronic state is 1-A.
 Alpha  occ. eigenvalues --  -14.85194 -10.67774 -10.67287  -1.03507  -0.89150
 Alpha  occ. eigenvalues --   -0.61018  -0.54405  -0.50643  -0.45234  -0.38649
 Alpha  occ. eigenvalues --   -0.38273
 Alpha virt. eigenvalues --    0.03070   0.05488   0.07933   0.09684   0.11246
 Alpha virt. eigenvalues --    0.11870   0.15173   0.15973   0.18107   0.20002
 Alpha virt. eigenvalues --    0.20996   0.25920   0.32016   0.33174   0.34531

 Mulliken charges:
               1
     1  C   -0.077600
     2  C    0.013196
     3  N   -0.212735
     4  H    0.098420
     5  H    0.083127
     6  H    0.095591
 Sum of Mulliken charges =   0.00000

 Dipole moment (field-independent basis, Debye):
    X=              4.1631    Y=             -0.1039    Z=             -0.0053  Tot=              4.1644
 Quadrupole moment (field-independent basis, Debye-Ang):
   XX=            -20.5086   YY=            -17.8957   ZZ=            -18.2028
   XY=              0.3232   XZ=              0.2918   YZ=              0.1095

 Normal termination of Gaussian 09 at Wed Aug 26 23:11:27 2020.
