 Gaussian 09, Revision D.01,
 Gaussian 09:  ES64L-G09RevD.01 24-Apr-2013

 --------------------
 #p B2PLYPD3/Def2QZVP
 --------------------

 ------------
 cyanomethane
 ------------
 Symbolic Z-matrix:
 Charge =  0 Multiplicity = 1

                         Standard orientation:
 ---------------------------------------------------------------------
 Center     Atomic      Atomic             Coordinates (Angstroms)
 Number     Number       Type             X           Y           Z
 ---------------------------------------------------------------------
      1          6           0        1.184805   -0.004724   -0.003729
      2          6           0       -0.278512    0.000305   -0.004109
      3          7           0       -1.434224    0.000173    0.000352
      4          1           0        1.541079    0.966632   -0.276830
      5          1           0        1.556159   -0.727502   -0.654530
      6          1           0        1.504574   -0.213827    0.975922
 ---------------------------------------------------------------------

 SCF Done:  E(RB2PLYPD3) =  -132.533674625     A.U. after   11 cycles
 E2(B2PLYPD3) =    -0.1801106025D+00 E(B2PLYPD3) =    -0.13271378522725D+03

 The electronic state is 1-A.
 Alpha  occ. eigenvalues --  -14.84168 -10.66243 -10.66105  -1.04028  -0.89998
 Alpha  occ. eigenvalues --   -0.59850  -0.55125  -0.54516  -0.44729  -0.39168
 Alpha  occ. eigenvalues --   -0.39051
 Alpha virt. eigenvalues --    0.03923   0.08304   0.08474   0.10217   0.11257
 Alpha virt. eigenvalues --    0.11396   0.15422   0.16056   0.16506   0.20091
 Alpha virt. eigenvalues --    0.20132   0.25210   0.32873   0.34915   0.35428

 Mulliken charges:
               1
     1  C   -0.074221
     2  C   -0.003138
     3  N   -0.208021
     4  H    0.094347
     5  H    0.096237
     6  H    0.094795
 Sum of Mulliken charges =   0.00000

 Dipole moment (field-independent basis, Debye):
    X=              4.1437    Y=             -0.0020    Z=              0.0126  Tot=              4.1438
 Quadrupole moment (field-independent basis, Debye-Ang):
   XX=            -20.9488   YY=            -17.6730   ZZ=            -17.7304
   XY=             -0.0054   XZ=             -0.0049   YZ=              0.0206

 Normal termination of Gaussian 09 at Wed Aug 26 23:57:15 2020.
