 Gaussian 09, Revision D.01,
 Gaussian 09:  ES64L-G09RevD.01 24-Apr-2013

 --------------------
 #p B2PLYPD3/Def2QZVP
 --------------------

 ------------
 cyanomethane
 ------------
 Symbolic Z-matrix:
 Charge =  0 Multiplicity = 1

                         Standard orientation:
 ---------------------------------------------------------------------
 Center     Atomic      Atomic             Coordinates (Angstroms)
 Number     Number       Type             X           Y           Z
 ---------------------------------------------------------------------
      1          6           0       -1.191683    0.012908   -0.000821
      2          6           0        0.260469   -0.038903    0.054382
      3          7           0        1.452497    0.027858   -0.032281
      4          1           0       -1.435048   -0.304078    0.920125
      5          1           0       -1.490277   -0.777146   -0.745995
      6          1           0       -1.654871    1.042190   -0.269533
 ---------------------------------------------------------------------

 SCF Done:  E(RB2PLYPD3) =  -132.513821975     A.U. after   13 cycles
 E2(B2PLYPD3) =    -0.1847514994D+00 E(B2PLYPD3) =    -0.13269857347422D+03

 The electronic state is 1-A.
 Alpha  occ. eigenvalues --  -14.85325 -10.67453 -10.67396  -1.02484  -0.89735
 Alpha  occ. eigenvalues --   -0.59137  -0.55382  -0.53034  -0.44849  -0.38045
 Alpha  occ. eigenvalues --   -0.37881
 Alpha virt. eigenvalues --    0.03137   0.06196   0.08268   0.09880   0.10871
 Alpha virt. eigenvalues --    0.11209   0.14716   0.15320   0.17052   0.20247
 Alpha virt. eigenvalues --    0.20412   0.25621   0.32041   0.33596   0.34377

 Mulliken charges:
               1
     1  C   -0.101260
     2  C    0.006808
     3  N   -0.224555
     4  H    0.111482
     5  H    0.102014
     6  H    0.105511
 Sum of Mulliken charges =   0.00000

 Dipole moment (field-independent basis, Debye):
    X=             -4.1559    Y=             -0.0621    Z=              0.0589  Tot=              4.1568
 Quadrupole moment (field-independent basis, Debye-Ang):
   XX=            -21.2304   YY=            -17.7029   ZZ=            -17.9666
   XY=             -0.2129   XZ=              0.1679   YZ=             -0.0323

 Normal termination of Gaussian 09 at Wed Aug 26 23:48:55 2020.
