 Gaussian 09, Revision D.01,
 Gaussian 09:  ES64L-G09RevD.01 24-Apr-2013

 --------------------
 #p B2PLYPD3/Def2QZVP
 --------------------

 ------------
 cyanomethane
 ------------
 Symbolic Z-matrix:
 Charge =  0 Multiplicity = 1

                         Standard orientation:
 ---------------------------------------------------------------------
 Center     Atomic      Atomic             Coordinates (Angstroms)
 Number     Number       Type             X           Y           Z
 ---------------------------------------------------------------------
      1          6           0        1.166924   -0.000794   -0.012711
      2          6           0       -0.281735    0.047107    0.022534
      3          7           0       -1.450686   -0.024665   -0.006698
      4          1           0        1.667753   -0.277788    0.905230
      5          1           0        1.602849    0.890943   -0.257919
      6          1           0        1.573061   -0.718372   -0.659362
 ---------------------------------------------------------------------

 SCF Done:  E(RB2PLYPD3) =  -132.525227314     A.U. after   11 cycles
 E2(B2PLYPD3) =    -0.1818677440D+00 E(B2PLYPD3) =    -0.13270709505828D+03

 The electronic state is 1-A.
 Alpha  occ. eigenvalues --  -14.85013 -10.67112 -10.65800  -1.03694  -0.90144
 Alpha  occ. eigenvalues --   -0.62369  -0.54829  -0.52651  -0.45211  -0.39024
 Alpha  occ. eigenvalues --   -0.38761
 Alpha virt. eigenvalues --    0.03766   0.07166   0.07858   0.10083   0.11181
 Alpha virt. eigenvalues --    0.11632   0.15605   0.16920   0.17210   0.20065
 Alpha virt. eigenvalues --    0.20304   0.25634   0.32782   0.34997   0.35637

 Mulliken charges:
               1
     1  C   -0.038560
     2  C    0.012961
     3  N   -0.212838
     4  H    0.073991
     5  H    0.083017
     6  H    0.081429
 Sum of Mulliken charges =   0.00000

 Dipole moment (field-independent basis, Debye):
    X=              4.1875    Y=              0.0182    Z=              0.0073  Tot=              4.1876
 Quadrupole moment (field-independent basis, Debye-Ang):
   XX=            -20.2942   YY=            -17.8449   ZZ=            -18.0650
   XY=             -0.1689   XZ=              0.0249   YZ=             -0.0021

 Normal termination of Gaussian 09 at Wed Aug 26 22:32:23 2020.
