 Gaussian 09, Revision D.01,
 Gaussian 09:  ES64L-G09RevD.01 24-Apr-2013

 --------------------
 #p B2PLYPD3/Def2QZVP
 --------------------

 ------------
 cyanomethane
 ------------
 Symbolic Z-matrix:
 Charge =  0 Multiplicity = 1

                         Standard orientation:
 ---------------------------------------------------------------------
 Center     Atomic      Atomic             Coordinates (Angstroms)
 Number     Number       Type             X           Y           Z
 ---------------------------------------------------------------------
      1          6           0        1.178256    0.012701    0.005186
      2          6           0       -0.272248   -0.005847   -0.017071
      3          7           0       -1.430104    0.001868    0.007149
      4          1           0        1.532498    0.938683   -0.397649
      5          1           0        1.533729   -0.848823   -0.613722
      6          1           0        1.508457   -0.144060    1.032643
 ---------------------------------------------------------------------

 SCF Done:  E(RB2PLYPD3) =  -132.534207537     A.U. after   11 cycles
 E2(B2PLYPD3) =    -0.1808030218D+00 E(B2PLYPD3) =    -0.13271501055883D+03

 The electronic state is 1-A.
 Alpha  occ. eigenvalues --  -14.84171 -10.67215 -10.66213  -1.03924  -0.89379
 Alpha  occ. eigenvalues --   -0.59270  -0.54848  -0.53535  -0.44697  -0.38970
 Alpha  occ. eigenvalues --   -0.38755
 Alpha virt. eigenvalues --    0.03736   0.07748   0.08034   0.10150   0.11325
 Alpha virt. eigenvalues --    0.11565   0.15371   0.15848   0.16310   0.20099
 Alpha virt. eigenvalues --    0.20153   0.25445   0.32638   0.34011   0.34952

 Mulliken charges:
               1
     1  C   -0.093706
     2  C   -0.001612
     3  N   -0.209069
     4  H    0.104369
     5  H    0.097738
     6  H    0.102279
 Sum of Mulliken charges =   0.00000

 Dipole moment (field-independent basis, Debye):
    X=              4.1167    Y=             -0.0078    Z=             -0.0051  Tot=              4.1167
 Quadrupole moment (field-independent basis, Debye-Ang):
   XX=            -21.2059   YY=            -17.6814   ZZ=            -17.7253
   XY=             -0.0025   XZ=              0.0268   YZ=             -0.0482

 Normal termination of Gaussian 09 at Thu Aug 27 00:11:39 2020.
