 Gaussian 09, Revision D.01,
 Gaussian 09:  ES64L-G09RevD.01 24-Apr-2013

 --------------------
 #p B2PLYPD3/Def2QZVP
 --------------------

 ------------
 cyanomethane
 ------------
 Symbolic Z-matrix:
 Charge =  0 Multiplicity = 1

                         Standard orientation:
 ---------------------------------------------------------------------
 Center     Atomic      Atomic             Coordinates (Angstroms)
 Number     Number       Type             X           Y           Z
 ---------------------------------------------------------------------
      1          6           0       -1.208064   -0.044413   -0.004686
      2          6           0        0.283044    0.048889   -0.019621
      3          7           0        1.440397   -0.020414    0.005803
      4          1           0       -1.539551   -0.786373   -0.629456
      5          1           0       -1.547263    1.035650   -0.335161
      6          1           0       -1.445846   -0.133236    1.069835
 ---------------------------------------------------------------------

 SCF Done:  E(RB2PLYPD3) =  -132.523236267     A.U. after   12 cycles
 E2(B2PLYPD3) =    -0.1813527203D+00 E(B2PLYPD3) =    -0.13270458898745D+03

 The electronic state is 1-A.
 Alpha  occ. eigenvalues --  -14.84193 -10.68026 -10.66366  -1.03735  -0.88645
 Alpha  occ. eigenvalues --   -0.58752  -0.55409  -0.52123  -0.44549  -0.39157
 Alpha  occ. eigenvalues --   -0.38584
 Alpha virt. eigenvalues --    0.03553   0.07573   0.08346   0.10015   0.11008
 Alpha virt. eigenvalues --    0.11489   0.14851   0.15182   0.16611   0.20028
 Alpha virt. eigenvalues --    0.20168   0.24855   0.31362   0.33156   0.35205

 Mulliken charges:
               1
     1  C   -0.110354
     2  C   -0.000029
     3  N   -0.209943
     4  H    0.115635
     5  H    0.095414
     6  H    0.109276
 Sum of Mulliken charges =   0.00000

 Dipole moment (field-independent basis, Debye):
    X=             -4.1053    Y=              0.0278    Z=              0.0135  Tot=              4.1054
 Quadrupole moment (field-independent basis, Debye-Ang):
   XX=            -21.4670   YY=            -17.7083   ZZ=            -17.6989
   XY=              0.0881   XZ=              0.0134   YZ=              0.1436

 Normal termination of Gaussian 09 at Wed Aug 26 23:22:00 2020.
