 Gaussian 09, Revision D.01,
 Gaussian 09:  ES64L-G09RevD.01 24-Apr-2013

 --------------------
 #p B2PLYPD3/Def2QZVP
 --------------------

 ------------
 cyanomethane
 ------------
 Symbolic Z-matrix:
 Charge =  0 Multiplicity = 1

                         Standard orientation:
 ---------------------------------------------------------------------
 Center     Atomic      Atomic             Coordinates (Angstroms)
 Number     Number       Type             X           Y           Z
 ---------------------------------------------------------------------
      1          6           0       -1.173478   -0.014650    0.002773
      2          6           0        0.277662    0.021856   -0.008613
      3          7           0        1.440016   -0.010948    0.002728
      4          1           0       -1.554095    1.031667   -0.032289
      5          1           0       -1.556916   -0.464971    0.887162
      6          1           0       -1.594203   -0.533295   -0.838932
 ---------------------------------------------------------------------

 SCF Done:  E(RB2PLYPD3) =  -132.533554405     A.U. after   11 cycles
 E2(B2PLYPD3) =    -0.1811919765D+00 E(B2PLYPD3) =    -0.13271474638181D+03

 The electronic state is 1-A.
 Alpha  occ. eigenvalues --  -14.84518 -10.66909 -10.66585  -1.03859  -0.89406
 Alpha  occ. eigenvalues --   -0.60523  -0.54200  -0.53350  -0.44921  -0.38985
 Alpha  occ. eigenvalues --   -0.38806
 Alpha virt. eigenvalues --    0.03770   0.07610   0.07720   0.10115   0.11377
 Alpha virt. eigenvalues --    0.11464   0.15487   0.16139   0.16891   0.20110
 Alpha virt. eigenvalues --    0.20150   0.25507   0.32650   0.34285   0.35195

 Mulliken charges:
               1
     1  C   -0.073058
     2  C    0.002554
     3  N   -0.209647
     4  H    0.090385
     5  H    0.095648
     6  H    0.094118
 Sum of Mulliken charges =   0.00000

 Dipole moment (field-independent basis, Debye):
    X=             -4.1464    Y=              0.0101    Z=              0.0006  Tot=              4.1464
 Quadrupole moment (field-independent basis, Debye-Ang):
   XX=            -20.8398   YY=            -17.8079   ZZ=            -17.8291
   XY=              0.0855   XZ=              0.0016   YZ=             -0.0046

 Normal termination of Gaussian 09 at Wed Aug 26 09:54:24 2020.
