 Gaussian 09, Revision D.01,
 Gaussian 09:  ES64L-G09RevD.01 24-Apr-2013

 --------------------
 #p B2PLYPD3/Def2QZVP
 --------------------

 ------------
 cyanomethane
 ------------
 Symbolic Z-matrix:
 Charge =  0 Multiplicity = 1

                         Standard orientation:
 ---------------------------------------------------------------------
 Center     Atomic      Atomic             Coordinates (Angstroms)
 Number     Number       Type             X           Y           Z
 ---------------------------------------------------------------------
      1          6           0       -1.173452    0.006412   -0.000185
      2          6           0        0.269496   -0.029461   -0.000756
      3          7           0        1.430930    0.015145   -0.000004
      4          1           0       -1.524623   -0.101921    1.010683
      5          1           0       -1.529397   -0.832673   -0.597150
      6          1           0       -1.538757    0.966880   -0.407855
 ---------------------------------------------------------------------

 SCF Done:  E(RB2PLYPD3) =  -132.534201279     A.U. after   12 cycles
 E2(B2PLYPD3) =    -0.1811429785D+00 E(B2PLYPD3) =    -0.13271534425776D+03

 The electronic state is 1-A.
 Alpha  occ. eigenvalues --  -14.84320 -10.67043 -10.66337  -1.03804  -0.89547
 Alpha  occ. eigenvalues --   -0.59625  -0.54345  -0.54037  -0.44762  -0.38769
 Alpha  occ. eigenvalues --   -0.38758
 Alpha virt. eigenvalues --    0.03727   0.07579   0.07983   0.10121   0.11380
 Alpha virt. eigenvalues --    0.11472   0.15452   0.15845   0.16438   0.20117
 Alpha virt. eigenvalues --    0.20169   0.25623   0.32805   0.34460   0.34561

 Mulliken charges:
               1
     1  C   -0.088451
     2  C   -0.000298
     3  N   -0.210834
     4  H    0.099413
     5  H    0.099572
     6  H    0.100598
 Sum of Mulliken charges =   0.00000

 Dipole moment (field-independent basis, Debye):
    X=             -4.1240    Y=             -0.0247    Z=              0.0134  Tot=              4.1240
 Quadrupole moment (field-independent basis, Debye-Ang):
   XX=            -21.1287   YY=            -17.6709   ZZ=            -17.7820
   XY=             -0.0778   XZ=             -0.0254   YZ=              0.0056

 Normal termination of Gaussian 09 at Wed Aug 26 12:32:29 2020.
