 Gaussian 09, Revision D.01,
 Gaussian 09:  ES64L-G09RevD.01 24-Apr-2013

 --------------------
 #p B2PLYPD3/Def2QZVP
 --------------------

 ------------
 cyanomethane
 ------------
 Symbolic Z-matrix:
 Charge =  0 Multiplicity = 1

                         Standard orientation:
 ---------------------------------------------------------------------
 Center     Atomic      Atomic             Coordinates (Angstroms)
 Number     Number       Type             X           Y           Z
 ---------------------------------------------------------------------
      1          6           0        1.179789    0.012517   -0.005272
      2          6           0       -0.280178   -0.004010   -0.026370
      3          7           0       -1.441577   -0.003218    0.011180
      4          1           0        1.513124    1.036059    0.003354
      5          1           0        1.632353   -0.564325   -0.790912
      6          1           0        1.547897   -0.500246    0.899143
 ---------------------------------------------------------------------

 SCF Done:  E(RB2PLYPD3) =  -132.533241186     A.U. after   12 cycles
 E2(B2PLYPD3) =    -0.1811397091D+00 E(B2PLYPD3) =    -0.13271438089480D+03

 The electronic state is 1-A.
 Alpha  occ. eigenvalues --  -14.84464 -10.67036 -10.66568  -1.03849  -0.89275
 Alpha  occ. eigenvalues --   -0.60205  -0.54911  -0.52692  -0.44868  -0.39079
 Alpha  occ. eigenvalues --   -0.38765
 Alpha virt. eigenvalues --    0.03732   0.07578   0.07951   0.10189   0.11138
 Alpha virt. eigenvalues --    0.11620   0.15324   0.16208   0.16749   0.20032
 Alpha virt. eigenvalues --    0.20194   0.25321   0.32624   0.34121   0.35272

 Mulliken charges:
               1
     1  C   -0.075966
     2  C    0.001692
     3  N   -0.209488
     4  H    0.100718
     5  H    0.092873
     6  H    0.090171
 Sum of Mulliken charges =   0.00000

 Dipole moment (field-independent basis, Debye):
    X=              4.1527    Y=             -0.0241    Z=              0.0014  Tot=              4.1528
 Quadrupole moment (field-independent basis, Debye-Ang):
   XX=            -20.8786   YY=            -17.6187   ZZ=            -18.0086
   XY=             -0.1652   XZ=              0.0515   YZ=              0.0250

 Normal termination of Gaussian 09 at Wed Aug 26 12:15:39 2020.
