 Gaussian 09, Revision D.01,
 Gaussian 09:  ES64L-G09RevD.01 24-Apr-2013

 --------------------
 #p B2PLYPD3/Def2QZVP
 --------------------

 ------------
 cyanomethane
 ------------
 Symbolic Z-matrix:
 Charge =  0 Multiplicity = 1

                         Standard orientation:
 ---------------------------------------------------------------------
 Center     Atomic      Atomic             Coordinates (Angstroms)
 Number     Number       Type             X           Y           Z
 ---------------------------------------------------------------------
      1          6           0       -1.196152   -0.001547    0.015788
      2          6           0        0.289115    0.029692   -0.023093
      3          7           0        1.438291   -0.012113    0.001872
      4          1           0       -1.405316   -0.391570    0.890348
      5          1           0       -1.612834   -0.660914   -0.727614
      6          1           0       -1.607662    0.968410   -0.132007
 ---------------------------------------------------------------------

 SCF Done:  E(RB2PLYPD3) =  -132.525544787     A.U. after   12 cycles
 E2(B2PLYPD3) =    -0.1795919836D+00 E(B2PLYPD3) =    -0.13270513677029D+03

 The electronic state is 1-A.
 Alpha  occ. eigenvalues --  -14.84072 -10.66200 -10.65877  -1.04242  -0.90091
 Alpha  occ. eigenvalues --   -0.59579  -0.56290  -0.53669  -0.44708  -0.39475
 Alpha  occ. eigenvalues --   -0.39285
 Alpha virt. eigenvalues --    0.03928   0.08207   0.09042   0.10343   0.11124
 Alpha virt. eigenvalues --    0.11438   0.15250   0.16016   0.16807   0.20001
 Alpha virt. eigenvalues --    0.20128   0.24850   0.32493   0.34964   0.36021

 Mulliken charges:
               1
     1  C   -0.076869
     2  C   -0.003826
     3  N   -0.204890
     4  H    0.103795
     5  H    0.087104
     6  H    0.094686
 Sum of Mulliken charges =   0.00000

 Dipole moment (field-independent basis, Debye):
    X=             -4.1489    Y=             -0.0087    Z=              0.0142  Tot=              4.1489
 Quadrupole moment (field-independent basis, Debye-Ang):
   XX=            -20.8337   YY=            -17.6134   ZZ=            -17.8028
   XY=              0.0717   XZ=              0.1064   YZ=             -0.0750

 Normal termination of Gaussian 09 at Wed Aug 26 20:59:32 2020.
