 Gaussian 09, Revision D.01,
 Gaussian 09:  ES64L-G09RevD.01 24-Apr-2013

 --------------------
 #p B2PLYPD3/Def2QZVP
 --------------------

 ------------
 cyanomethane
 ------------
 Symbolic Z-matrix:
 Charge =  0 Multiplicity = 1

                         Standard orientation:
 ---------------------------------------------------------------------
 Center     Atomic      Atomic             Coordinates (Angstroms)
 Number     Number       Type             X           Y           Z
 ---------------------------------------------------------------------
      1          6           0        1.187027    0.004192   -0.005004
      2          6           0       -0.283459   -0.029715   -0.003561
      3          7           0       -1.434884    0.014458    0.002171
      4          1           0        1.530957    1.026791   -0.009121
      5          1           0        1.548614   -0.505078   -0.847866
      6          1           0        1.543211   -0.469783    0.893182
 ---------------------------------------------------------------------

 SCF Done:  E(RB2PLYPD3) =  -132.534970284     A.U. after   11 cycles
 E2(B2PLYPD3) =    -0.1799984452D+00 E(B2PLYPD3) =    -0.13271496872962D+03

 The electronic state is 1-A.
 Alpha  occ. eigenvalues --  -14.84104 -10.66604 -10.66181  -1.04157  -0.89500
 Alpha  occ. eigenvalues --   -0.59531  -0.54849  -0.54014  -0.44726  -0.39259
 Alpha  occ. eigenvalues --   -0.39147
 Alpha virt. eigenvalues --    0.03828   0.08125   0.08512   0.10214   0.11259
 Alpha virt. eigenvalues --    0.11448   0.15354   0.16117   0.16476   0.20051
 Alpha virt. eigenvalues --    0.20100   0.25142   0.32793   0.34711   0.35222

 Mulliken charges:
               1
     1  C   -0.079902
     2  C   -0.003712
     3  N   -0.205529
     4  H    0.096610
     5  H    0.097619
     6  H    0.094914
 Sum of Mulliken charges =   0.00000

 Dipole moment (field-independent basis, Debye):
    X=              4.1322    Y=             -0.0204    Z=              0.0003  Tot=              4.1323
 Quadrupole moment (field-independent basis, Debye-Ang):
   XX=            -20.9842   YY=            -17.7144   ZZ=            -17.7130
   XY=              0.0681   XZ=              0.0170   YZ=              0.0233

 Normal termination of Gaussian 09 at Wed Aug 26 19:29:38 2020.
