 Gaussian 09, Revision D.01,
 Gaussian 09:  ES64L-G09RevD.01 24-Apr-2013

 --------------------
 #p B2PLYPD3/Def2QZVP
 --------------------

 ------------
 cyanomethane
 ------------
 Symbolic Z-matrix:
 Charge =  0 Multiplicity = 1

                         Standard orientation:
 ---------------------------------------------------------------------
 Center     Atomic      Atomic             Coordinates (Angstroms)
 Number     Number       Type             X           Y           Z
 ---------------------------------------------------------------------
      1          6           0        1.192163   -0.017657   -0.002765
      2          6           0       -0.278652   -0.002187   -0.023389
      3          7           0       -1.436150    0.008500    0.018929
      4          1           0        1.408580   -0.535865   -0.839176
      5          1           0        1.567812   -0.462456    0.897826
      6          1           0        1.595593    1.057880   -0.034225
 ---------------------------------------------------------------------

 SCF Done:  E(RB2PLYPD3) =  -132.526031676     A.U. after   12 cycles
 E2(B2PLYPD3) =    -0.1807540362D+00 E(B2PLYPD3) =    -0.13270678571241D+03

 The electronic state is 1-A.
 Alpha  occ. eigenvalues --  -14.84216 -10.66888 -10.66302  -1.03897  -0.89642
 Alpha  occ. eigenvalues --   -0.59053  -0.56202  -0.52812  -0.44671  -0.39110
 Alpha  occ. eigenvalues --   -0.38844
 Alpha virt. eigenvalues --    0.03683   0.07413   0.08959   0.10188   0.11053
 Alpha virt. eigenvalues --    0.11523   0.15179   0.15621   0.16618   0.20060
 Alpha virt. eigenvalues --    0.20181   0.25075   0.32202   0.33990   0.35571

 Mulliken charges:
               1
     1  C   -0.093342
     2  C   -0.003261
     3  N   -0.209032
     4  H    0.109863
     5  H    0.101105
     6  H    0.094668
 Sum of Mulliken charges =   0.00000

 Dipole moment (field-independent basis, Debye):
    X=              4.1234    Y=             -0.0269    Z=             -0.0206  Tot=              4.1235
 Quadrupole moment (field-independent basis, Debye-Ang):
   XX=            -21.1527   YY=            -17.7267   ZZ=            -17.6881
   XY=              0.1153   XZ=              0.2319   YZ=              0.0653

 Normal termination of Gaussian 09 at Wed Aug 26 15:05:13 2020.
