 Gaussian 09, Revision D.01,
 Gaussian 09:  ES64L-G09RevD.01 24-Apr-2013

 --------------------
 #p B2PLYPD3/Def2QZVP
 --------------------

 ------------
 cyanomethane
 ------------
 Symbolic Z-matrix:
 Charge =  0 Multiplicity = 1

                         Standard orientation:
 ---------------------------------------------------------------------
 Center     Atomic      Atomic             Coordinates (Angstroms)
 Number     Number       Type             X           Y           Z
 ---------------------------------------------------------------------
      1          6           0        1.180188   -0.004616    0.003675
      2          6           0       -0.280320    0.006882   -0.014583
      3          7           0       -1.429818   -0.000160    0.009171
      4          1           0        1.557576   -0.130631    0.992198
      5          1           0        1.563244    0.942136   -0.388532
      6          1           0        1.488698   -0.823980   -0.602413
 ---------------------------------------------------------------------

 SCF Done:  E(RB2PLYPD3) =  -132.535314481     A.U. after   11 cycles
 E2(B2PLYPD3) =    -0.1798589116D+00 E(B2PLYPD3) =    -0.13271517339250D+03

 The electronic state is 1-A.
 Alpha  occ. eigenvalues --  -14.83999 -10.66698 -10.66052  -1.04269  -0.89530
 Alpha  occ. eigenvalues --   -0.59611  -0.54715  -0.53933  -0.44712  -0.39209
 Alpha  occ. eigenvalues --   -0.39174
 Alpha virt. eigenvalues --    0.03839   0.08050   0.08429   0.10200   0.11415
 Alpha virt. eigenvalues --    0.11506   0.15402   0.16060   0.16531   0.20058
 Alpha virt. eigenvalues --    0.20102   0.25295   0.32832   0.34748   0.34978

 Mulliken charges:
               1
     1  C   -0.083187
     2  C   -0.003633
     3  N   -0.204540
     4  H    0.096424
     5  H    0.095668
     6  H    0.099268
 Sum of Mulliken charges =   0.00000

 Dipole moment (field-independent basis, Debye):
    X=              4.1213    Y=             -0.0074    Z=             -0.0051  Tot=              4.1213
 Quadrupole moment (field-independent basis, Debye-Ang):
   XX=            -21.0237   YY=            -17.6486   ZZ=            -17.7497
   XY=              0.0351   XZ=              0.1055   YZ=              0.0237

 Normal termination of Gaussian 09 at Thu Aug 27 00:03:30 2020.
