 Gaussian 09, Revision D.01,
 Gaussian 09:  ES64L-G09RevD.01 24-Apr-2013

 --------------------
 #p B2PLYPD3/Def2QZVP
 --------------------

 ------------
 cyanomethane
 ------------
 Symbolic Z-matrix:
 Charge =  0 Multiplicity = 1

                         Standard orientation:
 ---------------------------------------------------------------------
 Center     Atomic      Atomic             Coordinates (Angstroms)
 Number     Number       Type             X           Y           Z
 ---------------------------------------------------------------------
      1          6           0       -1.183865    0.009655    0.007089
      2          6           0        0.273130   -0.022925    0.004218
      3          7           0        1.441448    0.011548   -0.003056
      4          1           0       -1.539219   -0.128159    0.999734
      5          1           0       -1.536682   -0.829244   -0.632276
      6          1           0       -1.549826    0.956183   -0.413906
 ---------------------------------------------------------------------

 SCF Done:  E(RB2PLYPD3) =  -132.533043104     A.U. after   12 cycles
 E2(B2PLYPD3) =    -0.1817482352D+00 E(B2PLYPD3) =    -0.13271479133877D+03

 The electronic state is 1-A.
 Alpha  occ. eigenvalues --  -14.84558 -10.67262 -10.66643  -1.03525  -0.89280
 Alpha  occ. eigenvalues --   -0.59565  -0.54561  -0.53537  -0.44795  -0.38770
 Alpha  occ. eigenvalues --   -0.38605
 Alpha virt. eigenvalues --    0.03704   0.07473   0.07884   0.10134   0.11206
 Alpha virt. eigenvalues --    0.11374   0.15334   0.15838   0.16446   0.20148
 Alpha virt. eigenvalues --    0.20169   0.25351   0.32491   0.34103   0.34894

 Mulliken charges:
               1
     1  C   -0.087947
     2  C    0.000635
     3  N   -0.213133
     4  H    0.102084
     5  H    0.097308
     6  H    0.101052
 Sum of Mulliken charges =   0.00000

 Dipole moment (field-independent basis, Debye):
    X=             -4.1435    Y=             -0.0190    Z=              0.0067  Tot=              4.1436
 Quadrupole moment (field-independent basis, Debye-Ang):
   XX=            -21.1071   YY=            -17.7719   ZZ=            -17.7769
   XY=             -0.0592   XZ=              0.0131   YZ=             -0.0259

 Normal termination of Gaussian 09 at Thu Aug 27 00:05:11 2020.
