 Gaussian 09, Revision D.01,
 Gaussian 09:  ES64L-G09RevD.01 24-Apr-2013

 --------------------
 #p B2PLYPD3/Def2QZVP
 --------------------

 ------------
 cyanomethane
 ------------
 Symbolic Z-matrix:
 Charge =  0 Multiplicity = 1

                         Standard orientation:
 ---------------------------------------------------------------------
 Center     Atomic      Atomic             Coordinates (Angstroms)
 Number     Number       Type             X           Y           Z
 ---------------------------------------------------------------------
      1          6           0        1.170512   -0.002767   -0.005036
      2          6           0       -0.281058    0.008443   -0.003104
      3          7           0       -1.429610   -0.001157    0.005250
      4          1           0        1.498352   -0.615599   -0.800475
      5          1           0        1.579579   -0.413348    0.923261
      6          1           0        1.592618    1.002993   -0.110696
 ---------------------------------------------------------------------

 SCF Done:  E(RB2PLYPD3) =  -132.535236083     A.U. after   11 cycles
 E2(B2PLYPD3) =    -0.1798838146D+00 E(B2PLYPD3) =    -0.13271511989756D+03

 The electronic state is 1-A.
 Alpha  occ. eigenvalues --  -14.84049 -10.66792 -10.66086  -1.04390  -0.89449
 Alpha  occ. eigenvalues --   -0.60114  -0.54561  -0.53332  -0.44811  -0.39271
 Alpha  occ. eigenvalues --   -0.39158
 Alpha virt. eigenvalues --    0.03804   0.07768   0.08292   0.10194   0.11475
 Alpha virt. eigenvalues --    0.11637   0.15497   0.16310   0.16708   0.20038
 Alpha virt. eigenvalues --    0.20101   0.25467   0.32872   0.34568   0.35069

 Mulliken charges:
               1
     1  C   -0.077255
     2  C   -0.001687
     3  N   -0.203184
     4  H    0.097353
     5  H    0.091663
     6  H    0.093110
 Sum of Mulliken charges =   0.00000

 Dipole moment (field-independent basis, Debye):
    X=              4.1239    Y=             -0.0102    Z=             -0.0083  Tot=              4.1239
 Quadrupole moment (field-independent basis, Debye-Ang):
   XX=            -20.8837   YY=            -17.7167   ZZ=            -17.7757
   XY=              0.0176   XZ=              0.0851   YZ=              0.0407

 Normal termination of Gaussian 09 at Thu Aug 27 00:11:37 2020.
