 Gaussian 09, Revision D.01,
 Gaussian 09:  ES64L-G09RevD.01 24-Apr-2013

 --------------------
 #p B2PLYPD3/Def2QZVP
 --------------------

 ------------
 cyanomethane
 ------------
 Symbolic Z-matrix:
 Charge =  0 Multiplicity = 1

                         Standard orientation:
 ---------------------------------------------------------------------
 Center     Atomic      Atomic             Coordinates (Angstroms)
 Number     Number       Type             X           Y           Z
 ---------------------------------------------------------------------
      1          6           0        1.189224    0.020697    0.015181
      2          6           0       -0.283322    0.048956    0.003870
      3          7           0       -1.450425   -0.035368   -0.008065
      4          1           0        1.484145    1.080882   -0.069631
      5          1           0        1.672489   -0.669201   -0.884406
      6          1           0        1.560926   -0.582024    0.896184
 ---------------------------------------------------------------------

 SCF Done:  E(RB2PLYPD3) =  -132.515585193     A.U. after   12 cycles
 E2(B2PLYPD3) =    -0.1831566916D+00 E(B2PLYPD3) =    -0.13269874188417D+03

 The electronic state is 1-A.
 Alpha  occ. eigenvalues --  -14.84748 -10.69283 -10.66881  -1.03510  -0.87782
 Alpha  occ. eigenvalues --   -0.58801  -0.54909  -0.49984  -0.44868  -0.38889
 Alpha  occ. eigenvalues --   -0.38208
 Alpha virt. eigenvalues --    0.02966   0.05972   0.07783   0.10014   0.10814
 Alpha virt. eigenvalues --    0.11893   0.14847   0.16208   0.16438   0.19888
 Alpha virt. eigenvalues --    0.20322   0.25082   0.30985   0.32498   0.34785

 Mulliken charges:
               1
     1  C   -0.103748
     2  C    0.004661
     3  N   -0.210207
     4  H    0.114198
     5  H    0.090415
     6  H    0.104680
 Sum of Mulliken charges =   0.00000

 Dipole moment (field-independent basis, Debye):
    X=              4.1135    Y=              0.0066    Z=              0.0367  Tot=              4.1136
 Quadrupole moment (field-independent basis, Debye-Ang):
   XX=            -21.2472   YY=            -17.5133   ZZ=            -18.2629
   XY=             -0.4395   XZ=             -0.0732   YZ=             -0.1243

 Normal termination of Gaussian 09 at Wed Aug 26 21:35:55 2020.
