 Gaussian 09, Revision D.01,
 Gaussian 09:  ES64L-G09RevD.01 24-Apr-2013

 --------------------
 #p B2PLYPD3/Def2QZVP
 --------------------

 ------------
 cyanomethane
 ------------
 Symbolic Z-matrix:
 Charge =  0 Multiplicity = 1

                         Standard orientation:
 ---------------------------------------------------------------------
 Center     Atomic      Atomic             Coordinates (Angstroms)
 Number     Number       Type             X           Y           Z
 ---------------------------------------------------------------------
      1          6           0        1.180518    0.010429   -0.022508
      2          6           0       -0.306522    0.010710   -0.049893
      3          7           0       -1.441269   -0.010733    0.038434
      4          1           0        1.751957   -0.439954    0.954951
      5          1           0        1.551333    1.008121   -0.037966
      6          1           0        1.541620   -0.619874   -0.751622
 ---------------------------------------------------------------------

 SCF Done:  E(RB2PLYPD3) =  -132.518527433     A.U. after   12 cycles
 E2(B2PLYPD3) =    -0.1797654660D+00 E(B2PLYPD3) =    -0.13269829289884D+03

 The electronic state is 1-A.
 Alpha  occ. eigenvalues --  -14.84076 -10.67676 -10.66198  -1.04927  -0.88451
 Alpha  occ. eigenvalues --   -0.59971  -0.55853  -0.49896  -0.44978  -0.40046
 Alpha  occ. eigenvalues --   -0.39187
 Alpha virt. eigenvalues --    0.03062   0.06950   0.08986   0.10196   0.11063
 Alpha virt. eigenvalues --    0.11983   0.15369   0.16572   0.17410   0.19787
 Alpha virt. eigenvalues --    0.20237   0.24951   0.31335   0.33415   0.36051

 Mulliken charges:
               1
     1  C   -0.078913
     2  C    0.000825
     3  N   -0.193681
     4  H    0.075189
     5  H    0.097864
     6  H    0.098716
 Sum of Mulliken charges =   0.00000

 Dipole moment (field-independent basis, Debye):
    X=              4.1050    Y=              0.0193    Z=             -0.0880  Tot=              4.1060
 Quadrupole moment (field-independent basis, Debye-Ang):
   XX=            -20.6205   YY=            -17.6907   ZZ=            -18.0917
   XY=             -0.1343   XZ=              0.3401   YZ=              0.1760

 Normal termination of Gaussian 09 at Wed Aug 26 19:11:35 2020.
