 Gaussian 09, Revision D.01,
 Gaussian 09:  ES64L-G09RevD.01 24-Apr-2013

 --------------------
 #p B2PLYPD3/Def2QZVP
 --------------------

 ------------
 cyanomethane
 ------------
 Symbolic Z-matrix:
 Charge =  0 Multiplicity = 1

                         Standard orientation:
 ---------------------------------------------------------------------
 Center     Atomic      Atomic             Coordinates (Angstroms)
 Number     Number       Type             X           Y           Z
 ---------------------------------------------------------------------
      1          6           0        1.169972    0.003441    0.013051
      2          6           0       -0.272638   -0.005538   -0.031320
      3          7           0       -1.443288    0.004401    0.013510
      4          1           0        1.600417    1.065145   -0.174501
      5          1           0        1.572054   -0.703217   -0.793045
      6          1           0        1.546544   -0.380158    0.982591
 ---------------------------------------------------------------------

 SCF Done:  E(RB2PLYPD3) =  -132.527412578     A.U. after   12 cycles
 E2(B2PLYPD3) =    -0.1827164597D+00 E(B2PLYPD3) =    -0.13271012903804D+03

 The electronic state is 1-A.
 Alpha  occ. eigenvalues --  -14.84759 -10.68478 -10.66821  -1.03530  -0.88485
 Alpha  occ. eigenvalues --   -0.59712  -0.53068  -0.52568  -0.44951  -0.38576
 Alpha  occ. eigenvalues --   -0.38450
 Alpha virt. eigenvalues --    0.03439   0.06704   0.06976   0.10065   0.11428
 Alpha virt. eigenvalues --    0.11519   0.15374   0.15939   0.16666   0.20132
 Alpha virt. eigenvalues --    0.20174   0.25640   0.32056   0.33449   0.34183

 Mulliken charges:
               1
     1  C   -0.095723
     2  C    0.005834
     3  N   -0.211860
     4  H    0.100522
     5  H    0.097522
     6  H    0.103704
 Sum of Mulliken charges =   0.00000

 Dipole moment (field-independent basis, Debye):
    X=              4.1270    Y=             -0.0272    Z=             -0.0046  Tot=              4.1271
 Quadrupole moment (field-independent basis, Debye-Ang):
   XX=            -21.0921   YY=            -17.7930   ZZ=            -17.9431
   XY=              0.0042   XZ=              0.0725   YZ=             -0.0297

 Normal termination of Gaussian 09 at Wed Aug 26 13:05:15 2020.
