 Gaussian 09, Revision D.01,
 Gaussian 09:  ES64L-G09RevD.01 24-Apr-2013

 --------------------
 #p B2PLYPD3/Def2QZVP
 --------------------

 ------------
 cyanomethane
 ------------
 Symbolic Z-matrix:
 Charge =  0 Multiplicity = 1

                         Standard orientation:
 ---------------------------------------------------------------------
 Center     Atomic      Atomic             Coordinates (Angstroms)
 Number     Number       Type             X           Y           Z
 ---------------------------------------------------------------------
      1          6           0       -1.181620    0.006354   -0.003170
      2          6           0        0.279831   -0.000628    0.006418
      3          7           0        1.437139    0.002723   -0.003982
      4          1           0       -1.523025   -0.384685    0.952425
      5          1           0       -1.533759   -0.675211   -0.782998
      6          1           0       -1.592458    1.006481   -0.161040
 ---------------------------------------------------------------------

 SCF Done:  E(RB2PLYPD3) =  -132.535154180     A.U. after   12 cycles
 E2(B2PLYPD3) =    -0.1807353024D+00 E(B2PLYPD3) =    -0.13271588948242D+03

 The electronic state is 1-A.
 Alpha  occ. eigenvalues --  -14.84262 -10.67249 -10.66351  -1.03983  -0.89133
 Alpha  occ. eigenvalues --   -0.59567  -0.54079  -0.53713  -0.44777  -0.39059
 Alpha  occ. eigenvalues --   -0.38930
 Alpha virt. eigenvalues --    0.03741   0.07769   0.07999   0.10180   0.11346
 Alpha virt. eigenvalues --    0.11484   0.15351   0.15918   0.16679   0.20088
 Alpha virt. eigenvalues --    0.20125   0.25261   0.32624   0.34343   0.34842

 Mulliken charges:
               1
     1  C   -0.086316
     2  C   -0.001097
     3  N   -0.207513
     4  H    0.097414
     5  H    0.097871
     6  H    0.099641
 Sum of Mulliken charges =   0.00000

 Dipole moment (field-independent basis, Debye):
    X=             -4.1342    Y=             -0.0197    Z=              0.0130  Tot=              4.1342
 Quadrupole moment (field-independent basis, Debye-Ang):
   XX=            -21.0334   YY=            -17.7014   ZZ=            -17.8176
   XY=             -0.0290   XZ=              0.0205   YZ=             -0.0047

 Normal termination of Gaussian 09 at Wed Aug 26 12:19:28 2020.
