 Gaussian 09, Revision D.01,
 Gaussian 09:  ES64L-G09RevD.01 24-Apr-2013

 --------------------
 #p B2PLYPD3/Def2QZVP
 --------------------

 ------------
 cyanomethane
 ------------
 Symbolic Z-matrix:
 Charge =  0 Multiplicity = 1

                         Standard orientation:
 ---------------------------------------------------------------------
 Center     Atomic      Atomic             Coordinates (Angstroms)
 Number     Number       Type             X           Y           Z
 ---------------------------------------------------------------------
      1          6           0        1.177969   -0.003931   -0.010468
      2          6           0       -0.284635    0.003275    0.022252
      3          7           0       -1.435600   -0.001992   -0.011051
      4          1           0        1.554057    1.024524   -0.074371
      5          1           0        1.573681   -0.570944   -0.818218
      6          1           0        1.561457   -0.435701    0.899242
 ---------------------------------------------------------------------

 SCF Done:  E(RB2PLYPD3) =  -132.535270074     A.U. after   11 cycles
 E2(B2PLYPD3) =    -0.1801059732D+00 E(B2PLYPD3) =    -0.13271537604699D+03

 The electronic state is 1-A.
 Alpha  occ. eigenvalues --  -14.84171 -10.66836 -10.66246  -1.04266  -0.89293
 Alpha  occ. eigenvalues --   -0.60101  -0.54086  -0.53695  -0.44832  -0.39267
 Alpha  occ. eigenvalues --   -0.39167
 Alpha virt. eigenvalues --    0.03797   0.07961   0.08131   0.10178   0.11445
 Alpha virt. eigenvalues --    0.11481   0.15435   0.16188   0.16851   0.20063
 Alpha virt. eigenvalues --    0.20078   0.25302   0.32788   0.34565   0.35110

 Mulliken charges:
               1
     1  C   -0.075456
     2  C   -0.000891
     3  N   -0.204290
     4  H    0.093366
     5  H    0.095428
     6  H    0.091844
 Sum of Mulliken charges =   0.00000

 Dipole moment (field-independent basis, Debye):
    X=              4.1326    Y=             -0.0065    Z=              0.0231  Tot=              4.1327
 Quadrupole moment (field-independent basis, Debye-Ang):
   XX=            -20.8619   YY=            -17.7243   ZZ=            -17.8114
   XY=             -0.0446   XZ=             -0.0512   YZ=              0.0190

 Normal termination of Gaussian 09 at Thu Aug 27 00:01:10 2020.
