 Gaussian 09, Revision D.01,
 Gaussian 09:  ES64L-G09RevD.01 24-Apr-2013

 --------------------
 #p B2PLYPD3/Def2QZVP
 --------------------

 ------------
 cyanomethane
 ------------
 Symbolic Z-matrix:
 Charge =  0 Multiplicity = 1

                         Standard orientation:
 ---------------------------------------------------------------------
 Center     Atomic      Atomic             Coordinates (Angstroms)
 Number     Number       Type             X           Y           Z
 ---------------------------------------------------------------------
      1          6           0       -1.155825    0.024860    0.003228
      2          6           0        0.266677   -0.035221   -0.005021
      3          7           0        1.432653    0.014468    0.001970
      4          1           0       -1.561264   -0.054037    1.023089
      5          1           0       -1.578881   -0.887721   -0.547244
      6          1           0       -1.553536    0.902652   -0.478875
 ---------------------------------------------------------------------

 SCF Done:  E(RB2PLYPD3) =  -132.530681454     A.U. after   11 cycles
 E2(B2PLYPD3) =    -0.1819276651D+00 E(B2PLYPD3) =    -0.13271260911957D+03

 The electronic state is 1-A.
 Alpha  occ. eigenvalues --  -14.84597 -10.67352 -10.66565  -1.03765  -0.89421
 Alpha  occ. eigenvalues --   -0.60650  -0.54333  -0.52597  -0.44966  -0.38756
 Alpha  occ. eigenvalues --   -0.38415
 Alpha virt. eigenvalues --    0.03657   0.06991   0.07284   0.10018   0.11447
 Alpha virt. eigenvalues --    0.11701   0.15619   0.15939   0.16978   0.20142
 Alpha virt. eigenvalues --    0.20181   0.26045   0.32465   0.33843   0.35034

 Mulliken charges:
               1
     1  C   -0.080052
     2  C    0.004929
     3  N   -0.211411
     4  H    0.096301
     5  H    0.088952
     6  H    0.101282
 Sum of Mulliken charges =   0.00000

 Dipole moment (field-independent basis, Debye):
    X=             -4.1304    Y=             -0.0213    Z=              0.0038  Tot=              4.1305
 Quadrupole moment (field-independent basis, Debye-Ang):
   XX=            -20.9268   YY=            -17.8106   ZZ=            -17.8479
   XY=             -0.0426   XZ=             -0.0201   YZ=             -0.0745

 Normal termination of Gaussian 09 at Wed Aug 26 14:52:14 2020.
