 Gaussian 09, Revision D.01,
 Gaussian 09:  ES64L-G09RevD.01 24-Apr-2013

 --------------------
 #p B2PLYPD3/Def2QZVP
 --------------------

 ------------
 cyanomethane
 ------------
 Symbolic Z-matrix:
 Charge =  0 Multiplicity = 1

                         Standard orientation:
 ---------------------------------------------------------------------
 Center     Atomic      Atomic             Coordinates (Angstroms)
 Number     Number       Type             X           Y           Z
 ---------------------------------------------------------------------
      1          6           0        1.149711   -0.012610    0.020671
      2          6           0       -0.290531    0.049734   -0.059832
      3          7           0       -1.421335   -0.032912    0.029887
      4          1           0        1.645636   -0.384361    0.948269
      5          1           0        1.490739    1.023843   -0.116028
      6          1           0        1.657891   -0.631843   -0.806491
 ---------------------------------------------------------------------

 SCF Done:  E(RB2PLYPD3) =  -132.526594552     A.U. after   12 cycles
 E2(B2PLYPD3) =    -0.1799484173D+00 E(B2PLYPD3) =    -0.13270654296978D+03

 The electronic state is 1-A.
 Alpha  occ. eigenvalues --  -14.83993 -10.67774 -10.65956  -1.05067  -0.88541
 Alpha  occ. eigenvalues --   -0.60624  -0.53090  -0.51839  -0.45040  -0.39401
 Alpha  occ. eigenvalues --   -0.39367
 Alpha virt. eigenvalues --    0.03431   0.06789   0.08030   0.09915   0.11749
 Alpha virt. eigenvalues --    0.11977   0.15542   0.15986   0.17973   0.19880
 Alpha virt. eigenvalues --    0.20378   0.26176   0.32837   0.33925   0.34420

 Mulliken charges:
               1
     1  C   -0.082682
     2  C    0.006294
     3  N   -0.194037
     4  H    0.094052
     5  H    0.089912
     6  H    0.086461
 Sum of Mulliken charges =   0.00000

 Dipole moment (field-independent basis, Debye):
    X=              4.0589    Y=              0.0734    Z=             -0.0386  Tot=              4.0598
 Quadrupole moment (field-independent basis, Debye-Ang):
   XX=            -20.6886   YY=            -17.8116   ZZ=            -17.8961
   XY=             -0.2810   XZ=              0.2029   YZ=             -0.0102

 Normal termination of Gaussian 09 at Wed Aug 26 22:33:36 2020.
