 Gaussian 09, Revision D.01,
 Gaussian 09:  ES64L-G09RevD.01 24-Apr-2013

 --------------------
 #p B2PLYPD3/Def2QZVP
 --------------------

 ------------
 cyanomethane
 ------------
 Symbolic Z-matrix:
 Charge =  0 Multiplicity = 1

                         Standard orientation:
 ---------------------------------------------------------------------
 Center     Atomic      Atomic             Coordinates (Angstroms)
 Number     Number       Type             X           Y           Z
 ---------------------------------------------------------------------
      1          6           0        1.181229    0.014537   -0.000385
      2          6           0       -0.285641   -0.018968    0.006565
      3          7           0       -1.434533    0.007592   -0.002713
      4          1           0        1.566227   -0.043348    1.009531
      5          1           0        1.541162    0.895914   -0.483777
      6          1           0        1.560817   -0.879126   -0.543845
 ---------------------------------------------------------------------

 SCF Done:  E(RB2PLYPD3) =  -132.535371792     A.U. after   11 cycles
 E2(B2PLYPD3) =    -0.1799965997D+00 E(B2PLYPD3) =    -0.13271536839127D+03

 The electronic state is 1-A.
 Alpha  occ. eigenvalues --  -14.84068 -10.67146 -10.66151  -1.04316  -0.89056
 Alpha  occ. eigenvalues --   -0.59630  -0.54437  -0.53245  -0.44773  -0.39338
 Alpha  occ. eigenvalues --   -0.39149
 Alpha virt. eigenvalues --    0.03762   0.07959   0.08154   0.10195   0.11390
 Alpha virt. eigenvalues --    0.11563   0.15362   0.16154   0.16678   0.20039
 Alpha virt. eigenvalues --    0.20074   0.25209   0.32654   0.34259   0.35154

 Mulliken charges:
               1
     1  C   -0.083264
     2  C   -0.002419
     3  N   -0.203146
     4  H    0.096005
     5  H    0.099949
     6  H    0.092875
 Sum of Mulliken charges =   0.00000

 Dipole moment (field-independent basis, Debye):
    X=              4.1236    Y=             -0.0135    Z=              0.0073  Tot=              4.1236
 Quadrupole moment (field-independent basis, Debye-Ang):
   XX=            -20.9697   YY=            -17.7277   ZZ=            -17.7672
   XY=              0.0177   XZ=              0.0048   YZ=             -0.0445

 Normal termination of Gaussian 09 at Wed Aug 26 23:57:22 2020.
