 Gaussian 09, Revision D.01,
 Gaussian 09:  ES64L-G09RevD.01 24-Apr-2013

 --------------------
 #p B2PLYPD3/Def2QZVP
 --------------------

 ------------
 cyanomethane
 ------------
 Symbolic Z-matrix:
 Charge =  0 Multiplicity = 1

                         Standard orientation:
 ---------------------------------------------------------------------
 Center     Atomic      Atomic             Coordinates (Angstroms)
 Number     Number       Type             X           Y           Z
 ---------------------------------------------------------------------
      1          6           0        1.185305    0.002043    0.006028
      2          6           0       -0.282560   -0.014072   -0.002983
      3          7           0       -1.435372    0.007356   -0.004201
      4          1           0        1.575074    0.947306   -0.408293
      5          1           0        1.583485   -0.829703   -0.583155
      6          1           0        1.472577   -0.096926    1.002582
 ---------------------------------------------------------------------

 SCF Done:  E(RB2PLYPD3) =  -132.534009021     A.U. after   12 cycles
 E2(B2PLYPD3) =    -0.1802146398D+00 E(B2PLYPD3) =    -0.13271422366078D+03

 The electronic state is 1-A.
 Alpha  occ. eigenvalues --  -14.84124 -10.66937 -10.66210  -1.04136  -0.89334
 Alpha  occ. eigenvalues --   -0.59415  -0.54832  -0.53550  -0.44731  -0.39182
 Alpha  occ. eigenvalues --   -0.39111
 Alpha virt. eigenvalues --    0.03778   0.07795   0.08507   0.10221   0.11341
 Alpha virt. eigenvalues --    0.11448   0.15326   0.15962   0.16616   0.20077
 Alpha virt. eigenvalues --    0.20096   0.25148   0.32596   0.34531   0.35072

 Mulliken charges:
               1
     1  C   -0.085148
     2  C   -0.003188
     3  N   -0.205719
     4  H    0.096602
     5  H    0.095962
     6  H    0.101491
 Sum of Mulliken charges =   0.00000

 Dipole moment (field-independent basis, Debye):
    X=              4.1302    Y=             -0.0136    Z=              0.0220  Tot=              4.1303
 Quadrupole moment (field-independent basis, Debye-Ang):
   XX=            -21.0205   YY=            -17.7201   ZZ=            -17.7369
   XY=              0.0368   XZ=             -0.0785   YZ=             -0.0058

 Normal termination of Gaussian 09 at Wed Aug 26 23:29:37 2020.
