 Gaussian 09, Revision D.01,
 Gaussian 09:  ES64L-G09RevD.01 24-Apr-2013

 --------------------
 #p B2PLYPD3/Def2QZVP
 --------------------

 ------------
 cyanomethane
 ------------
 Symbolic Z-matrix:
 Charge =  0 Multiplicity = 1

                         Standard orientation:
 ---------------------------------------------------------------------
 Center     Atomic      Atomic             Coordinates (Angstroms)
 Number     Number       Type             X           Y           Z
 ---------------------------------------------------------------------
      1          6           0        1.169032    0.004921   -0.001847
      2          6           0       -0.281494   -0.023434    0.004107
      3          7           0       -1.431895    0.011199   -0.004233
      4          1           0        1.565742    1.005947   -0.251484
      5          1           0        1.594180   -0.711882   -0.718924
      6          1           0        1.538116   -0.261380    0.986475
 ---------------------------------------------------------------------

 SCF Done:  E(RB2PLYPD3) =  -132.535285416     A.U. after   12 cycles
 E2(B2PLYPD3) =    -0.1803032851D+00 E(B2PLYPD3) =    -0.13271558870087D+03

 The electronic state is 1-A.
 Alpha  occ. eigenvalues --  -14.84157 -10.67260 -10.66197  -1.04320  -0.89079
 Alpha  occ. eigenvalues --   -0.60064  -0.53672  -0.53409  -0.44856  -0.39145
 Alpha  occ. eigenvalues --   -0.39124
 Alpha virt. eigenvalues --    0.03711   0.07603   0.07943   0.10157   0.11546
 Alpha virt. eigenvalues --    0.11601   0.15489   0.16239   0.16800   0.20057
 Alpha virt. eigenvalues --    0.20085   0.25523   0.32807   0.34500   0.34604

 Mulliken charges:
               1
     1  C   -0.080719
     2  C   -0.000105
     3  N   -0.203596
     4  H    0.095467
     5  H    0.094014
     6  H    0.094939
 Sum of Mulliken charges =   0.00000

 Dipole moment (field-independent basis, Debye):
    X=              4.1203    Y=             -0.0186    Z=              0.0155  Tot=              4.1203
 Quadrupole moment (field-independent basis, Debye-Ang):
   XX=            -20.9017   YY=            -17.7649   ZZ=            -17.7960
   XY=              0.0477   XZ=             -0.0413   YZ=             -0.0029

 Normal termination of Gaussian 09 at Thu Aug 27 00:09:25 2020.
