 Gaussian 09, Revision D.01,
 Gaussian 09:  ES64L-G09RevD.01 24-Apr-2013

 --------------------
 #p B2PLYPD3/Def2QZVP
 --------------------

 ------------
 cyanomethane
 ------------
 Symbolic Z-matrix:
 Charge =  0 Multiplicity = 1

                         Standard orientation:
 ---------------------------------------------------------------------
 Center     Atomic      Atomic             Coordinates (Angstroms)
 Number     Number       Type             X           Y           Z
 ---------------------------------------------------------------------
      1          6           0       -1.156892   -0.009868   -0.007815
      2          6           0        0.279406    0.028498    0.005291
      3          7           0        1.426936   -0.002587   -0.000617
      4          1           0       -1.553600   -0.312460    0.987102
      5          1           0       -1.459130   -0.800498   -0.710719
      6          1           0       -1.710910    1.019285   -0.256923
 ---------------------------------------------------------------------

 SCF Done:  E(RB2PLYPD3) =  -132.527219031     A.U. after   12 cycles
 E2(B2PLYPD3) =    -0.1806828279D+00 E(B2PLYPD3) =    -0.13270790185914D+03

 The electronic state is 1-A.
 Alpha  occ. eigenvalues --  -14.84089 -10.68216 -10.66109  -1.04506  -0.88654
 Alpha  occ. eigenvalues --   -0.59813  -0.53600  -0.51942  -0.44884  -0.39109
 Alpha  occ. eigenvalues --   -0.38948
 Alpha virt. eigenvalues --    0.03470   0.06669   0.07721   0.10163   0.11746
 Alpha virt. eigenvalues --    0.11899   0.15429   0.16084   0.17075   0.20026
 Alpha virt. eigenvalues --    0.20118   0.25753   0.31832   0.33813   0.34457

 Mulliken charges:
               1
     1  C   -0.093981
     2  C    0.002755
     3  N   -0.201311
     4  H    0.095824
     5  H    0.102877
     6  H    0.093836
 Sum of Mulliken charges =   0.00000

 Dipole moment (field-independent basis, Debye):
    X=             -4.0946    Y=             -0.0453    Z=              0.0303  Tot=              4.0949
 Quadrupole moment (field-independent basis, Debye-Ang):
   XX=            -20.9732   YY=            -17.6882   ZZ=            -17.9404
   XY=             -0.0678   XZ=             -0.0950   YZ=              0.0567

 Normal termination of Gaussian 09 at Wed Aug 26 19:34:08 2020.
