 Gaussian 09, Revision D.01,
 Gaussian 09:  ES64L-G09RevD.01 24-Apr-2013

 --------------------
 #p B2PLYPD3/Def2QZVP
 --------------------

 ------------
 cyanomethane
 ------------
 Symbolic Z-matrix:
 Charge =  0 Multiplicity = 1

                         Standard orientation:
 ---------------------------------------------------------------------
 Center     Atomic      Atomic             Coordinates (Angstroms)
 Number     Number       Type             X           Y           Z
 ---------------------------------------------------------------------
      1          6           0        1.190325    0.020119    0.038562
      2          6           0       -0.301513    0.024941   -0.069052
      3          7           0       -1.441205   -0.017624    0.032551
      4          1           0        1.587711   -0.149463    0.962294
      5          1           0        1.559107    0.867171   -0.414240
      6          1           0        1.608742   -0.864698   -0.592969
 ---------------------------------------------------------------------

 SCF Done:  E(RB2PLYPD3) =  -132.523330298     A.U. after   12 cycles
 E2(B2PLYPD3) =    -0.1797928214D+00 E(B2PLYPD3) =    -0.13270312311984D+03

 The electronic state is 1-A.
 Alpha  occ. eigenvalues --  -14.84172 -10.66848 -10.66299  -1.04583  -0.88994
 Alpha  occ. eigenvalues --   -0.60273  -0.55671  -0.51511  -0.44916  -0.39833
 Alpha  occ. eigenvalues --   -0.39251
 Alpha virt. eigenvalues --    0.03614   0.07459   0.08794   0.10056   0.11110
 Alpha virt. eigenvalues --    0.11762   0.15362   0.15951   0.17601   0.19920
 Alpha virt. eigenvalues --    0.20148   0.25157   0.32010   0.33706   0.36072

 Mulliken charges:
               1
     1  C   -0.072070
     2  C    0.002775
     3  N   -0.199466
     4  H    0.097287
     5  H    0.094843
     6  H    0.076631
 Sum of Mulliken charges =   0.00000

 Dipole moment (field-independent basis, Debye):
    X=              4.1099    Y=              0.0272    Z=             -0.0456  Tot=              4.1103
 Quadrupole moment (field-independent basis, Debye-Ang):
   XX=            -20.7192   YY=            -17.8244   ZZ=            -17.8001
   XY=             -0.1494   XZ=              0.1771   YZ=             -0.1334

 Normal termination of Gaussian 09 at Wed Aug 26 19:05:13 2020.
