 Gaussian 09, Revision D.01,
 Gaussian 09:  ES64L-G09RevD.01 24-Apr-2013

 --------------------
 #p B2PLYPD3/Def2QZVP
 --------------------

 ------------
 cyanomethane
 ------------
 Symbolic Z-matrix:
 Charge =  0 Multiplicity = 1

                         Standard orientation:
 ---------------------------------------------------------------------
 Center     Atomic      Atomic             Coordinates (Angstroms)
 Number     Number       Type             X           Y           Z
 ---------------------------------------------------------------------
      1          6           0        1.175122   -0.013730   -0.000045
      2          6           0       -0.277801    0.004564   -0.011367
      3          7           0       -1.428708   -0.000531    0.007457
      4          1           0        1.559699    0.043043    1.006758
      5          1           0        1.533121    0.906331   -0.514852
      6          1           0        1.524207   -0.890659   -0.475634
 ---------------------------------------------------------------------

 SCF Done:  E(RB2PLYPD3) =  -132.534719048     A.U. after   11 cycles
 E2(B2PLYPD3) =    -0.1800860878D+00 E(B2PLYPD3) =    -0.13271480513612D+03

 The electronic state is 1-A.
 Alpha  occ. eigenvalues --  -14.84040 -10.66878 -10.66076  -1.04239  -0.89473
 Alpha  occ. eigenvalues --   -0.59733  -0.55019  -0.53282  -0.44739  -0.39233
 Alpha  occ. eigenvalues --   -0.38978
 Alpha virt. eigenvalues --    0.03794   0.07856   0.08270   0.10173   0.11351
 Alpha virt. eigenvalues --    0.11665   0.15440   0.16083   0.16541   0.20038
 Alpha virt. eigenvalues --    0.20134   0.25426   0.32796   0.34174   0.35241

 Mulliken charges:
               1
     1  C   -0.084203
     2  C   -0.002416
     3  N   -0.205087
     4  H    0.095512
     5  H    0.094528
     6  H    0.101666
 Sum of Mulliken charges =   0.00000

 Dipole moment (field-independent basis, Debye):
    X=              4.1184    Y=              0.0068    Z=              0.0044  Tot=              4.1184
 Quadrupole moment (field-independent basis, Debye-Ang):
   XX=            -21.0369   YY=            -17.6230   ZZ=            -17.8001
   XY=              0.0221   XZ=              0.1053   YZ=              0.0540

 Normal termination of Gaussian 09 at Wed Aug 26 23:54:50 2020.
