 Gaussian 09, Revision D.01,
 Gaussian 09:  ES64L-G09RevD.01 24-Apr-2013

 --------------------
 #p B2PLYPD3/Def2QZVP
 --------------------

 ------------
 cyanomethane
 ------------
 Symbolic Z-matrix:
 Charge =  0 Multiplicity = 1

                         Standard orientation:
 ---------------------------------------------------------------------
 Center     Atomic      Atomic             Coordinates (Angstroms)
 Number     Number       Type             X           Y           Z
 ---------------------------------------------------------------------
      1          6           0       -1.174181    0.001365    0.001432
      2          6           0        0.269709   -0.010141    0.009855
      3          7           0        1.431613    0.007528   -0.007405
      4          1           0       -1.495111   -0.291711    0.973980
      5          1           0       -1.530490   -0.728710   -0.740466
      6          1           0       -1.568862    1.020379   -0.249404
 ---------------------------------------------------------------------

 SCF Done:  E(RB2PLYPD3) =  -132.533349602     A.U. after   12 cycles
 E2(B2PLYPD3) =    -0.1811959428D+00 E(B2PLYPD3) =    -0.13271454554527D+03

 The electronic state is 1-A.
 Alpha  occ. eigenvalues --  -14.84311 -10.67211 -10.66340  -1.03801  -0.89463
 Alpha  occ. eigenvalues --   -0.59490  -0.54530  -0.53675  -0.44752  -0.38778
 Alpha  occ. eigenvalues --   -0.38728
 Alpha virt. eigenvalues --    0.03697   0.07411   0.08065   0.10137   0.11389
 Alpha virt. eigenvalues --    0.11487   0.15429   0.15775   0.16464   0.20140
 Alpha virt. eigenvalues --    0.20157   0.25560   0.32677   0.34249   0.34599

 Mulliken charges:
               1
     1  C   -0.091392
     2  C   -0.000399
     3  N   -0.210700
     4  H    0.102345
     5  H    0.100142
     6  H    0.100004
 Sum of Mulliken charges =   0.00000

 Dipole moment (field-independent basis, Debye):
    X=             -4.1242    Y=             -0.0234    Z=              0.0206  Tot=              4.1243
 Quadrupole moment (field-independent basis, Debye-Ang):
   XX=            -21.1558   YY=            -17.6954   ZZ=            -17.7630
   XY=             -0.0513   XZ=              0.0531   YZ=             -0.0090

 Normal termination of Gaussian 09 at Thu Aug 27 00:07:52 2020.
