 Gaussian 09, Revision D.01,
 Gaussian 09:  ES64L-G09RevD.01 24-Apr-2013

 --------------------
 #p B2PLYPD3/Def2QZVP
 --------------------

 ------------
 cyanomethane
 ------------
 Symbolic Z-matrix:
 Charge =  0 Multiplicity = 1

                         Standard orientation:
 ---------------------------------------------------------------------
 Center     Atomic      Atomic             Coordinates (Angstroms)
 Number     Number       Type             X           Y           Z
 ---------------------------------------------------------------------
      1          6           0       -1.179422    0.011736    0.009532
      2          6           0        0.291795   -0.021130   -0.015893
      3          7           0        1.434356    0.006976   -0.001773
      4          1           0       -1.569672    1.014516   -0.275052
      5          1           0       -1.458765   -0.244441    1.012836
      6          1           0       -1.686296   -0.762546   -0.687203
 ---------------------------------------------------------------------

 SCF Done:  E(RB2PLYPD3) =  -132.531278373     A.U. after   12 cycles
 E2(B2PLYPD3) =    -0.1799036653D+00 E(B2PLYPD3) =    -0.13271118203832D+03

 The electronic state is 1-A.
 Alpha  occ. eigenvalues --  -14.83946 -10.67969 -10.66064  -1.04601  -0.88409
 Alpha  occ. eigenvalues --   -0.59250  -0.54165  -0.52120  -0.44785  -0.39458
 Alpha  occ. eigenvalues --   -0.39270
 Alpha virt. eigenvalues --    0.03592   0.07287   0.08292   0.10255   0.11512
 Alpha virt. eigenvalues --    0.11733   0.15225   0.16075   0.16975   0.19997
 Alpha virt. eigenvalues --    0.20050   0.25143   0.32053   0.34157   0.34727

 Mulliken charges:
               1
     1  C   -0.093126
     2  C   -0.001649
     3  N   -0.198827
     4  H    0.100084
     5  H    0.102638
     6  H    0.090880
 Sum of Mulliken charges =   0.00000

 Dipole moment (field-independent basis, Debye):
    X=             -4.1072    Y=             -0.0095    Z=              0.0302  Tot=              4.1073
 Quadrupole moment (field-independent basis, Debye-Ang):
   XX=            -20.9780   YY=            -17.7485   ZZ=            -17.8215
   XY=              0.0089   XZ=              0.1077   YZ=             -0.0728

 Normal termination of Gaussian 09 at Wed Aug 26 11:58:57 2020.
