 Gaussian 09, Revision D.01,
 Gaussian 09:  ES64L-G09RevD.01 24-Apr-2013

 --------------------
 #p B2PLYPD3/Def2QZVP
 --------------------

 ------------
 cyanomethane
 ------------
 Symbolic Z-matrix:
 Charge =  0 Multiplicity = 1

                         Standard orientation:
 ---------------------------------------------------------------------
 Center     Atomic      Atomic             Coordinates (Angstroms)
 Number     Number       Type             X           Y           Z
 ---------------------------------------------------------------------
      1          6           0        1.181869    0.015179   -0.005280
      2          6           0       -0.275440    0.012270   -0.029580
      3          7           0       -1.427200   -0.007234    0.021574
      4          1           0        1.594367   -0.200005    0.978558
      5          1           0        1.496976    0.923960   -0.324550
      6          1           0        1.460482   -0.838009   -0.595862
 ---------------------------------------------------------------------

 SCF Done:  E(RB2PLYPD3) =  -132.529271636     A.U. after   12 cycles
 E2(B2PLYPD3) =    -0.1800727263D+00 E(B2PLYPD3) =    -0.13270934436252D+03

 The electronic state is 1-A.
 Alpha  occ. eigenvalues --  -14.84032 -10.66198 -10.66061  -1.04129  -0.90098
 Alpha  occ. eigenvalues --   -0.59661  -0.56732  -0.53015  -0.44673  -0.39283
 Alpha  occ. eigenvalues --   -0.38850
 Alpha virt. eigenvalues --    0.03835   0.07834   0.08939   0.10172   0.11071
 Alpha virt. eigenvalues --    0.11703   0.15410   0.15765   0.16674   0.20014
 Alpha virt. eigenvalues --    0.20203   0.25356   0.32972   0.34121   0.35814

 Mulliken charges:
               1
     1  C   -0.081475
     2  C   -0.003290
     3  N   -0.207304
     4  H    0.090006
     5  H    0.104071
     6  H    0.097992
 Sum of Mulliken charges =   0.00000

 Dipole moment (field-independent basis, Debye):
    X=              4.1210    Y=             -0.0151    Z=             -0.0133  Tot=              4.1210
 Quadrupole moment (field-independent basis, Debye-Ang):
   XX=            -21.0583   YY=            -17.4625   ZZ=            -17.8784
   XY=             -0.0840   XZ=              0.2625   YZ=             -0.0289

 Normal termination of Gaussian 09 at Wed Aug 26 13:34:32 2020.
