 Gaussian 09, Revision D.01,
 Gaussian 09:  ES64L-G09RevD.01 24-Apr-2013

 --------------------
 #p B2PLYPD3/Def2QZVP
 --------------------

 ------------
 cyanomethane
 ------------
 Symbolic Z-matrix:
 Charge =  0 Multiplicity = 1

                         Standard orientation:
 ---------------------------------------------------------------------
 Center     Atomic      Atomic             Coordinates (Angstroms)
 Number     Number       Type             X           Y           Z
 ---------------------------------------------------------------------
      1          6           0       -1.166488    0.003320   -0.005158
      2          6           0        0.273383    0.005827   -0.016683
      3          7           0        1.431802   -0.002142    0.004796
      4          1           0       -1.579102   -0.830199   -0.594064
      5          1           0       -1.594045    0.945621   -0.349733
      6          1           0       -1.490840   -0.155308    1.041276
 ---------------------------------------------------------------------

 SCF Done:  E(RB2PLYPD3) =  -132.534401206     A.U. after   12 cycles
 E2(B2PLYPD3) =    -0.1809772372D+00 E(B2PLYPD3) =    -0.13271537844302D+03

 The electronic state is 1-A.
 Alpha  occ. eigenvalues --  -14.84308 -10.67254 -10.66340  -1.04008  -0.89311
 Alpha  occ. eigenvalues --   -0.60123  -0.54020  -0.53363  -0.44848  -0.38963
 Alpha  occ. eigenvalues --   -0.38756
 Alpha virt. eigenvalues --    0.03713   0.07560   0.07638   0.10144   0.11423
 Alpha virt. eigenvalues --    0.11673   0.15499   0.16036   0.16761   0.20093
 Alpha virt. eigenvalues --    0.20152   0.25658   0.32776   0.34041   0.34871

 Mulliken charges:
               1
     1  C   -0.083518
     2  C    0.001236
     3  N   -0.208100
     4  H    0.096550
     5  H    0.097974
     6  H    0.095858
 Sum of Mulliken charges =   0.00000

 Dipole moment (field-independent basis, Debye):
    X=             -4.1298    Y=             -0.0035    Z=              0.0130  Tot=              4.1298
 Quadrupole moment (field-independent basis, Debye-Ang):
   XX=            -20.9749   YY=            -17.7263   ZZ=            -17.8334
   XY=              0.0063   XZ=              0.0033   YZ=             -0.0046

 Normal termination of Gaussian 09 at Thu Aug 27 00:11:46 2020.
