 Gaussian 09, Revision D.01,
 Gaussian 09:  ES64L-G09RevD.01 24-Apr-2013

 --------------------
 #p B2PLYPD3/Def2QZVP
 --------------------

 ------------
 cyanomethane
 ------------
 Symbolic Z-matrix:
 Charge =  0 Multiplicity = 1

                         Standard orientation:
 ---------------------------------------------------------------------
 Center     Atomic      Atomic             Coordinates (Angstroms)
 Number     Number       Type             X           Y           Z
 ---------------------------------------------------------------------
      1          6           0        1.171645   -0.001680    0.009032
      2          6           0       -0.277056    0.000048   -0.045385
      3          7           0       -1.444197   -0.000073    0.024698
      4          1           0        1.576832    1.031787   -0.002201
      5          1           0        1.559801   -0.526181   -0.838269
      6          1           0        1.605213   -0.495305    0.885703
 ---------------------------------------------------------------------

 SCF Done:  E(RB2PLYPD3) =  -132.531943442     A.U. after   12 cycles
 E2(B2PLYPD3) =    -0.1819394746D+00 E(B2PLYPD3) =    -0.13271388291629D+03

 The electronic state is 1-A.
 Alpha  occ. eigenvalues --  -14.84768 -10.67120 -10.66824  -1.03657  -0.89248
 Alpha  occ. eigenvalues --   -0.60650  -0.53916  -0.53079  -0.45012  -0.38774
 Alpha  occ. eigenvalues --   -0.38730
 Alpha virt. eigenvalues --    0.03641   0.07037   0.07750   0.10055   0.11260
 Alpha virt. eigenvalues --    0.11516   0.15518   0.16074   0.17050   0.20082
 Alpha virt. eigenvalues --    0.20228   0.25641   0.32681   0.34495   0.34670

 Mulliken charges:
               1
     1  C   -0.071555
     2  C    0.004829
     3  N   -0.211490
     4  H    0.092669
     5  H    0.092889
     6  H    0.092658
 Sum of Mulliken charges =   0.00000

 Dipole moment (field-independent basis, Debye):
    X=              4.1496    Y=             -0.0143    Z=             -0.0371  Tot=              4.1498
 Quadrupole moment (field-independent basis, Debye-Ang):
   XX=            -20.7837   YY=            -17.8175   ZZ=            -17.9252
   XY=             -0.0382   XZ=              0.1545   YZ=              0.0196

 Normal termination of Gaussian 09 at Wed Aug 26 11:14:23 2020.
