 Gaussian 09, Revision D.01,
 Gaussian 09:  ES64L-G09RevD.01 24-Apr-2013

 --------------------
 #p B2PLYPD3/Def2QZVP
 --------------------

 ------------
 cyanomethane
 ------------
 Symbolic Z-matrix:
 Charge =  0 Multiplicity = 1

                         Standard orientation:
 ---------------------------------------------------------------------
 Center     Atomic      Atomic             Coordinates (Angstroms)
 Number     Number       Type             X           Y           Z
 ---------------------------------------------------------------------
      1          6           0        1.179117    0.001599   -0.002694
      2          6           0       -0.272691   -0.012515   -0.028930
      3          7           0       -1.445579    0.001308    0.011703
      4          1           0        1.524862    0.865089   -0.456950
      5          1           0        1.649700   -0.833179   -0.442211
      6          1           0        1.505935    0.024437    1.006984
 ---------------------------------------------------------------------

 SCF Done:  E(RB2PLYPD3) =  -132.529935275     A.U. after   12 cycles
 E2(B2PLYPD3) =    -0.1817430417D+00 E(B2PLYPD3) =    -0.13271167831698D+03

 The electronic state is 1-A.
 Alpha  occ. eigenvalues --  -14.84795 -10.66896 -10.65910  -1.03435  -0.90245
 Alpha  occ. eigenvalues --   -0.60976  -0.55084  -0.54102  -0.44941  -0.38793
 Alpha  occ. eigenvalues --   -0.38635
 Alpha virt. eigenvalues --    0.03884   0.07654   0.08024   0.10184   0.11130
 Alpha virt. eigenvalues --    0.11373   0.15485   0.16132   0.16845   0.20157
 Alpha virt. eigenvalues --    0.20219   0.25460   0.32730   0.34890   0.35596

 Mulliken charges:
               1
     1  C   -0.059780
     2  C    0.004336
     3  N   -0.215601
     4  H    0.092395
     5  H    0.089014
     6  H    0.089637
 Sum of Mulliken charges =   0.00000

 Dipole moment (field-independent basis, Debye):
    X=              4.1830    Y=              0.0105    Z=              0.0049  Tot=              4.1831
 Quadrupole moment (field-independent basis, Debye-Ang):
   XX=            -20.7168   YY=            -17.7857   ZZ=            -17.8590
   XY=             -0.0521   XZ=              0.0473   YZ=             -0.0205

 Normal termination of Gaussian 09 at Wed Aug 26 11:52:14 2020.
