 Gaussian 09, Revision D.01,
 Gaussian 09:  ES64L-G09RevD.01 24-Apr-2013

 --------------------
 #p B2PLYPD3/Def2QZVP
 --------------------

 ------------
 cyanomethane
 ------------
 Symbolic Z-matrix:
 Charge =  0 Multiplicity = 1

                         Standard orientation:
 ---------------------------------------------------------------------
 Center     Atomic      Atomic             Coordinates (Angstroms)
 Number     Number       Type             X           Y           Z
 ---------------------------------------------------------------------
      1          6           0       -1.176965    0.002215   -0.003001
      2          6           0        0.283319   -0.012883    0.002055
      3          7           0        1.433882    0.007048   -0.004193
      4          1           0       -1.567693    1.017328   -0.039672
      5          1           0       -1.512509   -0.456008    0.900266
      6          1           0       -1.595091   -0.546645   -0.825571
 ---------------------------------------------------------------------

 SCF Done:  E(RB2PLYPD3) =  -132.535486018     A.U. after   11 cycles
 E2(B2PLYPD3) =    -0.1799945145D+00 E(B2PLYPD3) =    -0.13271548053294D+03

 The electronic state is 1-A.
 Alpha  occ. eigenvalues --  -14.84124 -10.66719 -10.66194  -1.04287  -0.89425
 Alpha  occ. eigenvalues --   -0.60071  -0.54173  -0.53871  -0.44812  -0.39244
 Alpha  occ. eigenvalues --   -0.39195
 Alpha virt. eigenvalues --    0.03817   0.07926   0.08297   0.10199   0.11458
 Alpha virt. eigenvalues --    0.11486   0.15448   0.16146   0.16855   0.20064
 Alpha virt. eigenvalues --    0.20088   0.25315   0.32845   0.34778   0.35010

 Mulliken charges:
               1
     1  C   -0.075522
     2  C   -0.001547
     3  N   -0.204247
     4  H    0.093832
     5  H    0.094276
     6  H    0.093208
 Sum of Mulliken charges =   0.00000

 Dipole moment (field-independent basis, Debye):
    X=             -4.1335    Y=             -0.0185    Z=              0.0161  Tot=              4.1336
 Quadrupole moment (field-independent basis, Debye-Ang):
   XX=            -20.8676   YY=            -17.7318   ZZ=            -17.7771
   XY=             -0.0295   XZ=              0.0593   YZ=             -0.0037

 Normal termination of Gaussian 09 at Thu Aug 27 00:13:52 2020.
