 Gaussian 09, Revision D.01,
 Gaussian 09:  ES64L-G09RevD.01 24-Apr-2013

 --------------------
 #p B2PLYPD3/Def2QZVP
 --------------------

 ------------
 cyanomethane
 ------------
 Symbolic Z-matrix:
 Charge =  0 Multiplicity = 1

                         Standard orientation:
 ---------------------------------------------------------------------
 Center     Atomic      Atomic             Coordinates (Angstroms)
 Number     Number       Type             X           Y           Z
 ---------------------------------------------------------------------
      1          6           0       -1.164584   -0.008233   -0.008695
      2          6           0        0.264143    0.022178   -0.030035
      3          7           0        1.432036   -0.007487    0.010989
      4          1           0       -1.568572   -0.712997   -0.719431
      5          1           0       -1.596849    1.018627   -0.157921
      6          1           0       -1.456189   -0.336893    1.032811
 ---------------------------------------------------------------------

 SCF Done:  E(RB2PLYPD3) =  -132.530884951     A.U. after   12 cycles
 E2(B2PLYPD3) =    -0.1820575308D+00 E(B2PLYPD3) =    -0.13271294248134D+03

 The electronic state is 1-A.
 Alpha  occ. eigenvalues --  -14.84526 -10.67555 -10.66546  -1.03601  -0.89362
 Alpha  occ. eigenvalues --   -0.59958  -0.54349  -0.53030  -0.44842  -0.38654
 Alpha  occ. eigenvalues --   -0.38326
 Alpha virt. eigenvalues --    0.03602   0.07109   0.07435   0.10096   0.11308
 Alpha virt. eigenvalues --    0.11701   0.15457   0.15819   0.16583   0.20128
 Alpha virt. eigenvalues --    0.20216   0.25851   0.32577   0.33469   0.34851

 Mulliken charges:
               1
     1  C   -0.092235
     2  C    0.003708
     3  N   -0.213382
     4  H    0.103803
     5  H    0.098613
     6  H    0.099492
 Sum of Mulliken charges =   0.00000

 Dipole moment (field-independent basis, Debye):
    X=             -4.1296    Y=             -0.0018    Z=              0.0076  Tot=              4.1296
 Quadrupole moment (field-independent basis, Debye-Ang):
   XX=            -21.1253   YY=            -17.7421   ZZ=            -17.8249
   XY=              0.0089   XZ=             -0.0138   YZ=              0.0554

 Normal termination of Gaussian 09 at Wed Aug 26 14:55:09 2020.
