 Gaussian 09, Revision D.01,
 Gaussian 09:  ES64L-G09RevD.01 24-Apr-2013

 --------------------
 #p B2PLYPD3/Def2QZVP
 --------------------

 ------------
 cyanomethane
 ------------
 Symbolic Z-matrix:
 Charge =  0 Multiplicity = 1

                         Standard orientation:
 ---------------------------------------------------------------------
 Center     Atomic      Atomic             Coordinates (Angstroms)
 Number     Number       Type             X           Y           Z
 ---------------------------------------------------------------------
      1          6           0        1.160334   -0.000945   -0.027897
      2          6           0       -0.265688   -0.043389    0.036968
      3          7           0       -1.426737    0.022838   -0.013714
      4          1           0        1.574482   -0.054031    1.003873
      5          1           0        1.526196    0.966494   -0.400507
      6          1           0        1.518602   -0.806325   -0.561791
 ---------------------------------------------------------------------

 SCF Done:  E(RB2PLYPD3) =  -132.530189315     A.U. after   12 cycles
 E2(B2PLYPD3) =    -0.1813215187D+00 E(B2PLYPD3) =    -0.13271151083380D+03

 The electronic state is 1-A.
 Alpha  occ. eigenvalues --  -14.84431 -10.66565 -10.66366  -1.03842  -0.89985
 Alpha  occ. eigenvalues --   -0.60451  -0.55702  -0.52834  -0.44874  -0.38916
 Alpha  occ. eigenvalues --   -0.38469
 Alpha virt. eigenvalues --    0.03692   0.07200   0.08118   0.10059   0.11202
 Alpha virt. eigenvalues --    0.11751   0.15511   0.15908   0.16892   0.20086
 Alpha virt. eigenvalues --    0.20196   0.26079   0.32817   0.34060   0.35405

 Mulliken charges:
               1
     1  C   -0.076887
     2  C    0.003031
     3  N   -0.211588
     4  H    0.086698
     5  H    0.097450
     6  H    0.101296
 Sum of Mulliken charges =   0.00000

 Dipole moment (field-independent basis, Debye):
    X=              4.1230    Y=             -0.0237    Z=              0.0388  Tot=              4.1232
 Quadrupole moment (field-independent basis, Debye-Ang):
   XX=            -20.9581   YY=            -17.6226   ZZ=            -17.8839
   XY=              0.1405   XZ=              0.0245   YZ=              0.0811

 Normal termination of Gaussian 09 at Wed Aug 26 22:20:06 2020.
