 Gaussian 09, Revision D.01,
 Gaussian 09:  ES64L-G09RevD.01 24-Apr-2013

 --------------------
 #p B2PLYPD3/Def2QZVP
 --------------------

 ------------
 cyanomethane
 ------------
 Symbolic Z-matrix:
 Charge =  0 Multiplicity = 1

                         Standard orientation:
 ---------------------------------------------------------------------
 Center     Atomic      Atomic             Coordinates (Angstroms)
 Number     Number       Type             X           Y           Z
 ---------------------------------------------------------------------
      1          6           0       -1.176224    0.004225   -0.009111
      2          6           0        0.273782   -0.000727    0.009682
      3          7           0        1.433099   -0.000885   -0.004532
      4          1           0       -1.533863   -0.073546    0.996106
      5          1           0       -1.551686   -0.845267   -0.542180
      6          1           0       -1.531491    0.904026   -0.425632
 ---------------------------------------------------------------------

 SCF Done:  E(RB2PLYPD3) =  -132.534414723     A.U. after   11 cycles
 E2(B2PLYPD3) =    -0.1805657058D+00 E(B2PLYPD3) =    -0.13271498042843D+03

 The electronic state is 1-A.
 Alpha  occ. eigenvalues --  -14.84284 -10.66343 -10.66282  -1.03926  -0.89955
 Alpha  occ. eigenvalues --   -0.60110  -0.55067  -0.54089  -0.44786  -0.39030
 Alpha  occ. eigenvalues --   -0.38876
 Alpha virt. eigenvalues --    0.03881   0.08026   0.08183   0.10173   0.11289
 Alpha virt. eigenvalues --    0.11472   0.15495   0.16048   0.16583   0.20104
 Alpha virt. eigenvalues --    0.20157   0.25475   0.32927   0.34691   0.35308

 Mulliken charges:
               1
     1  C   -0.074125
     2  C   -0.001268
     3  N   -0.209618
     4  H    0.092326
     5  H    0.095135
     6  H    0.097549
 Sum of Mulliken charges =   0.00000

 Dipole moment (field-independent basis, Debye):
    X=             -4.1433    Y=             -0.0017    Z=              0.0219  Tot=              4.1433
 Quadrupole moment (field-independent basis, Debye-Ang):
   XX=            -20.9420   YY=            -17.6566   ZZ=            -17.7985
   XY=              0.0277   XZ=             -0.0076   YZ=             -0.0141

 Normal termination of Gaussian 09 at Wed Aug 26 23:04:44 2020.
