 Gaussian 09, Revision D.01,
 Gaussian 09:  ES64L-G09RevD.01 24-Apr-2013

 --------------------
 #p B2PLYPD3/Def2QZVP
 --------------------

 ------------
 cyanomethane
 ------------
 Symbolic Z-matrix:
 Charge =  0 Multiplicity = 1

                         Standard orientation:
 ---------------------------------------------------------------------
 Center     Atomic      Atomic             Coordinates (Angstroms)
 Number     Number       Type             X           Y           Z
 ---------------------------------------------------------------------
      1          6           0        1.183453   -0.010208    0.004115
      2          6           0       -0.275032   -0.003779   -0.012113
      3          7           0       -1.438319    0.004009    0.004952
      4          1           0        1.557490    0.897527   -0.509270
      5          1           0        1.533934   -0.868633   -0.494456
      6          1           0        1.526283    0.026961    1.017046
 ---------------------------------------------------------------------

 SCF Done:  E(RB2PLYPD3) =  -132.533779397     A.U. after   11 cycles
 E2(B2PLYPD3) =    -0.1810670729D+00 E(B2PLYPD3) =    -0.13271484646976D+03

 The electronic state is 1-A.
 Alpha  occ. eigenvalues --  -14.84398 -10.66806 -10.66472  -1.03735  -0.89573
 Alpha  occ. eigenvalues --   -0.59690  -0.55129  -0.53594  -0.44771  -0.38951
 Alpha  occ. eigenvalues --   -0.38759
 Alpha virt. eigenvalues --    0.03795   0.07732   0.08176   0.10175   0.11181
 Alpha virt. eigenvalues --    0.11441   0.15373   0.16131   0.16275   0.20103
 Alpha virt. eigenvalues --    0.20171   0.25299   0.32629   0.34319   0.35238

 Mulliken charges:
               1
     1  C   -0.081994
     2  C   -0.001224
     3  N   -0.211076
     4  H    0.094395
     5  H    0.100823
     6  H    0.099076
 Sum of Mulliken charges =   0.00000

 Dipole moment (field-independent basis, Debye):
    X=              4.1439    Y=             -0.0025    Z=             -0.0015  Tot=              4.1439
 Quadrupole moment (field-independent basis, Debye-Ang):
   XX=            -21.0410   YY=            -17.7400   ZZ=            -17.7532
   XY=              0.0492   XZ=              0.0202   YZ=              0.0503

 Normal termination of Gaussian 09 at Thu Aug 27 00:09:51 2020.
