 Gaussian 09, Revision D.01,
 Gaussian 09:  ES64L-G09RevD.01 24-Apr-2013

 --------------------
 #p B2PLYPD3/Def2QZVP
 --------------------

 ------------
 cyanomethane
 ------------
 Symbolic Z-matrix:
 Charge =  0 Multiplicity = 1

                         Standard orientation:
 ---------------------------------------------------------------------
 Center     Atomic      Atomic             Coordinates (Angstroms)
 Number     Number       Type             X           Y           Z
 ---------------------------------------------------------------------
      1          6           0        1.174117   -0.001613   -0.005509
      2          6           0       -0.289351   -0.057535   -0.016749
      3          7           0       -1.443030    0.027105    0.008197
      4          1           0        1.548659    1.080326   -0.063365
      5          1           0        1.643973   -0.534623   -0.740989
      6          1           0        1.599980   -0.380551    0.880527
 ---------------------------------------------------------------------

 SCF Done:  E(RB2PLYPD3) =  -132.527519768     A.U. after   12 cycles
 E2(B2PLYPD3) =    -0.1807422655D+00 E(B2PLYPD3) =    -0.13270826203323D+03

 The electronic state is 1-A.
 Alpha  occ. eigenvalues --  -14.84526 -10.66665 -10.66613  -1.04174  -0.89392
 Alpha  occ. eigenvalues --   -0.61320  -0.54134  -0.52629  -0.45039  -0.39317
 Alpha  occ. eigenvalues --   -0.39064
 Alpha virt. eigenvalues --    0.03524   0.07470   0.08272   0.10192   0.11278
 Alpha virt. eigenvalues --    0.11592   0.15401   0.16634   0.17081   0.20014
 Alpha virt. eigenvalues --    0.20121   0.25435   0.32751   0.33753   0.35582

 Mulliken charges:
               1
     1  C   -0.060793
     2  C    0.008072
     3  N   -0.206196
     4  H    0.086689
     5  H    0.087861
     6  H    0.084367
 Sum of Mulliken charges =   0.00000

 Dipole moment (field-independent basis, Debye):
    X=              4.1477    Y=             -0.0704    Z=              0.0078  Tot=              4.1483
 Quadrupole moment (field-independent basis, Debye-Ang):
   XX=            -20.5518   YY=            -17.7516   ZZ=            -18.0050
   XY=              0.0258   XZ=              0.0736   YZ=              0.0302

 Normal termination of Gaussian 09 at Wed Aug 26 16:30:43 2020.
