 Gaussian 09, Revision D.01,
 Gaussian 09:  ES64L-G09RevD.01 24-Apr-2013

 --------------------
 #p B2PLYPD3/Def2QZVP
 --------------------

 ------------
 cyanomethane
 ------------
 Symbolic Z-matrix:
 Charge =  0 Multiplicity = 1

                         Standard orientation:
 ---------------------------------------------------------------------
 Center     Atomic      Atomic             Coordinates (Angstroms)
 Number     Number       Type             X           Y           Z
 ---------------------------------------------------------------------
      1          6           0       -1.189185    0.011189    0.004429
      2          6           0        0.278311   -0.008331   -0.011274
      3          7           0        1.440510    0.004523    0.006682
      4          1           0       -1.554901   -0.081146    1.037271
      5          1           0       -1.516429   -0.916527   -0.575075
      6          1           0       -1.547001    0.948861   -0.467902
 ---------------------------------------------------------------------

 SCF Done:  E(RB2PLYPD3) =  -132.531671664     A.U. after   12 cycles
 E2(B2PLYPD3) =    -0.1815320889D+00 E(B2PLYPD3) =    -0.13271320375338D+03

 The electronic state is 1-A.
 Alpha  occ. eigenvalues --  -14.84350 -10.68135 -10.66473  -1.03724  -0.88561
 Alpha  occ. eigenvalues --   -0.58843  -0.54019  -0.53029  -0.44712  -0.38890
 Alpha  occ. eigenvalues --   -0.38693
 Alpha virt. eigenvalues --    0.03572   0.07544   0.07642   0.10150   0.11270
 Alpha virt. eigenvalues --    0.11468   0.15151   0.15724   0.16373   0.20093
 Alpha virt. eigenvalues --    0.20153   0.25124   0.32168   0.33605   0.34529

 Mulliken charges:
               1
     1  C   -0.103004
     2  C    0.000391
     3  N   -0.209760
     4  H    0.104128
     5  H    0.101401
     6  H    0.106843
 Sum of Mulliken charges =   0.00000

 Dipole moment (field-independent basis, Debye):
    X=             -4.1226    Y=             -0.0115    Z=              0.0050  Tot=              4.1227
 Quadrupole moment (field-independent basis, Debye-Ang):
   XX=            -21.2814   YY=            -17.6838   ZZ=            -17.8343
   XY=             -0.0320   XZ=             -0.0928   YZ=             -0.0394

 Normal termination of Gaussian 09 at Wed Aug 26 15:33:54 2020.
