 Gaussian 09, Revision D.01,
 Gaussian 09:  ES64L-G09RevD.01 24-Apr-2013

 --------------------
 #p B2PLYPD3/Def2QZVP
 --------------------

 ------------
 cyanomethane
 ------------
 Symbolic Z-matrix:
 Charge =  0 Multiplicity = 1

                         Standard orientation:
 ---------------------------------------------------------------------
 Center     Atomic      Atomic             Coordinates (Angstroms)
 Number     Number       Type             X           Y           Z
 ---------------------------------------------------------------------
      1          6           0        1.170329   -0.013505   -0.004314
      2          6           0       -0.289850    0.011118    0.043806
      3          7           0       -1.425786   -0.002500   -0.023594
      4          1           0        1.592579    1.037992   -0.225525
      5          1           0        1.557461   -0.681617   -0.785023
      6          1           0        1.547590   -0.324555    0.938752
 ---------------------------------------------------------------------

 SCF Done:  E(RB2PLYPD3) =  -132.532607636     A.U. after   12 cycles
 E2(B2PLYPD3) =    -0.1793526322D+00 E(B2PLYPD3) =    -0.13271196026871D+03

 The electronic state is 1-A.
 Alpha  occ. eigenvalues --  -14.83807 -10.67512 -10.65836  -1.04831  -0.88726
 Alpha  occ. eigenvalues --   -0.59664  -0.54165  -0.52471  -0.44803  -0.39580
 Alpha  occ. eigenvalues --   -0.39357
 Alpha virt. eigenvalues --    0.03599   0.07484   0.08440   0.10162   0.11525
 Alpha virt. eigenvalues --    0.11840   0.15465   0.16162   0.16969   0.19935
 Alpha virt. eigenvalues --    0.20053   0.25459   0.32572   0.34044   0.34904

 Mulliken charges:
               1
     1  C   -0.087609
     2  C   -0.002366
     3  N   -0.196097
     4  H    0.090725
     5  H    0.097747
     6  H    0.097599
 Sum of Mulliken charges =   0.00000

 Dipole moment (field-independent basis, Debye):
    X=              4.0857    Y=             -0.0127    Z=              0.0450  Tot=              4.0860
 Quadrupole moment (field-independent basis, Debye-Ang):
   XX=            -20.9420   YY=            -17.7473   ZZ=            -17.7398
   XY=             -0.0161   XZ=             -0.1360   YZ=              0.0030

 Normal termination of Gaussian 09 at Wed Aug 26 12:28:07 2020.
