 Gaussian 09, Revision D.01,
 Gaussian 09:  ES64L-G09RevD.01 24-Apr-2013

 --------------------
 #p B2PLYPD3/Def2QZVP
 --------------------

 ------------
 cyanomethane
 ------------
 Symbolic Z-matrix:
 Charge =  0 Multiplicity = 1

                         Standard orientation:
 ---------------------------------------------------------------------
 Center     Atomic      Atomic             Coordinates (Angstroms)
 Number     Number       Type             X           Y           Z
 ---------------------------------------------------------------------
      1          6           0        1.169032    0.003140   -0.008805
      2          6           0       -0.279573   -0.012856    0.003878
      3          7           0       -1.429375    0.005694   -0.000449
      4          1           0        1.546414    1.046712    0.004343
      5          1           0        1.553936   -0.520137   -0.861968
      6          1           0        1.568519   -0.508131    0.890330
 ---------------------------------------------------------------------

 SCF Done:  E(RB2PLYPD3) =  -132.535190210     A.U. after   11 cycles
 E2(B2PLYPD3) =    -0.1801789983D+00 E(B2PLYPD3) =    -0.13271536920817D+03

 The electronic state is 1-A.
 Alpha  occ. eigenvalues --  -14.84078 -10.67226 -10.66107  -1.04334  -0.89170
 Alpha  occ. eigenvalues --   -0.59928  -0.54141  -0.53215  -0.44810  -0.39200
 Alpha  occ. eigenvalues --   -0.39048
 Alpha virt. eigenvalues --    0.03725   0.07673   0.07992   0.10167   0.11505
 Alpha virt. eigenvalues --    0.11672   0.15473   0.16270   0.16615   0.20052
 Alpha virt. eigenvalues --    0.20090   0.25523   0.32807   0.34202   0.34844

 Mulliken charges:
               1
     1  C   -0.083522
     2  C   -0.001070
     3  N   -0.203551
     4  H    0.097180
     5  H    0.098011
     6  H    0.092952
 Sum of Mulliken charges =   0.00000

 Dipole moment (field-independent basis, Debye):
    X=              4.1161    Y=             -0.0196    Z=              0.0026  Tot=              4.1161
 Quadrupole moment (field-independent basis, Debye-Ang):
   XX=            -20.9679   YY=            -17.6952   ZZ=            -17.8096
   XY=             -0.0087   XZ=              0.0161   YZ=              0.0357

 Normal termination of Gaussian 09 at Wed Aug 26 23:55:22 2020.
