 Gaussian 09, Revision D.01,
 Gaussian 09:  ES64L-G09RevD.01 24-Apr-2013

 --------------------
 #p B2PLYPD3/Def2QZVP
 --------------------

 ------------
 cyanomethane
 ------------
 Symbolic Z-matrix:
 Charge =  0 Multiplicity = 1

                         Standard orientation:
 ---------------------------------------------------------------------
 Center     Atomic      Atomic             Coordinates (Angstroms)
 Number     Number       Type             X           Y           Z
 ---------------------------------------------------------------------
      1          6           0       -1.169924    0.008185    0.011689
      2          6           0        0.275358    0.009384    0.019459
      3          7           0        1.426383   -0.002875   -0.012717
      4          1           0       -1.514825   -0.248197    0.977705
      5          1           0       -1.522166   -0.823533   -0.719202
      6          1           0       -1.580291    0.986443   -0.356379
 ---------------------------------------------------------------------

 SCF Done:  E(RB2PLYPD3) =  -132.530824235     A.U. after   12 cycles
 E2(B2PLYPD3) =    -0.1805579187D+00 E(B2PLYPD3) =    -0.13271138215364D+03

 The electronic state is 1-A.
 Alpha  occ. eigenvalues --  -14.84043 -10.67720 -10.66065  -1.04235  -0.89025
 Alpha  occ. eigenvalues --   -0.59377  -0.54707  -0.52466  -0.44742  -0.39156
 Alpha  occ. eigenvalues --   -0.38774
 Alpha virt. eigenvalues --    0.03549   0.07203   0.08162   0.10152   0.11391
 Alpha virt. eigenvalues --    0.11845   0.15413   0.15912   0.16535   0.20033
 Alpha virt. eigenvalues --    0.20141   0.25533   0.32444   0.33310   0.34972

 Mulliken charges:
               1
     1  C   -0.098033
     2  C   -0.000296
     3  N   -0.204721
     4  H    0.105141
     5  H    0.095568
     6  H    0.102341
 Sum of Mulliken charges =   0.00000

 Dipole moment (field-independent basis, Debye):
    X=             -4.0976    Y=             -0.0089    Z=              0.0269  Tot=              4.0977
 Quadrupole moment (field-independent basis, Debye-Ang):
   XX=            -21.1784   YY=            -17.6954   ZZ=            -17.7520
   XY=              0.0027   XZ=              0.0785   YZ=             -0.0789

 Normal termination of Gaussian 09 at Wed Aug 26 10:48:13 2020.
