 Gaussian 09, Revision D.01,
 Gaussian 09:  ES64L-G09RevD.01 24-Apr-2013

 --------------------
 #p B2PLYPD3/Def2QZVP
 --------------------

 ------------
 cyanomethane
 ------------
 Symbolic Z-matrix:
 Charge =  0 Multiplicity = 1

                         Standard orientation:
 ---------------------------------------------------------------------
 Center     Atomic      Atomic             Coordinates (Angstroms)
 Number     Number       Type             X           Y           Z
 ---------------------------------------------------------------------
      1          6           0       -1.176367    0.004472    0.000831
      2          6           0        0.278039    0.010421    0.001077
      3          7           0        1.440550   -0.011596    0.000727
      4          1           0       -1.487481    1.035296   -0.098599
      5          1           0       -1.613899   -0.437344    0.899282
      6          1           0       -1.592503   -0.606135   -0.817219
 ---------------------------------------------------------------------

 SCF Done:  E(RB2PLYPD3) =  -132.533332634     A.U. after   12 cycles
 E2(B2PLYPD3) =    -0.1812884414D+00 E(B2PLYPD3) =    -0.13271462107580D+03

 The electronic state is 1-A.
 Alpha  occ. eigenvalues --  -14.84483 -10.67200 -10.66568  -1.03835  -0.89216
 Alpha  occ. eigenvalues --   -0.60197  -0.54488  -0.52846  -0.44880  -0.38932
 Alpha  occ. eigenvalues --   -0.38802
 Alpha virt. eigenvalues --    0.03722   0.07335   0.07934   0.10145   0.11258
 Alpha virt. eigenvalues --    0.11577   0.15336   0.16228   0.16705   0.20055
 Alpha virt. eigenvalues --    0.20205   0.25405   0.32622   0.34410   0.34767

 Mulliken charges:
               1
     1  C   -0.078962
     2  C    0.001598
     3  N   -0.209622
     4  H    0.100027
     5  H    0.093539
     6  H    0.093420
 Sum of Mulliken charges =   0.00000

 Dipole moment (field-independent basis, Debye):
    X=             -4.1464    Y=              0.0028    Z=              0.0017  Tot=              4.1464
 Quadrupole moment (field-independent basis, Debye-Ang):
   XX=            -20.9082   YY=            -17.6791   ZZ=            -17.9551
   XY=              0.2009   XZ=             -0.0337   YZ=             -0.0127

 Normal termination of Gaussian 09 at Wed Aug 26 23:57:30 2020.
