 Gaussian 09, Revision D.01,
 Gaussian 09:  ES64L-G09RevD.01 24-Apr-2013

 --------------------
 #p B2PLYPD3/Def2QZVP
 --------------------

 ------------
 cyanomethane
 ------------
 Symbolic Z-matrix:
 Charge =  0 Multiplicity = 1

                         Standard orientation:
 ---------------------------------------------------------------------
 Center     Atomic      Atomic             Coordinates (Angstroms)
 Number     Number       Type             X           Y           Z
 ---------------------------------------------------------------------
      1          6           0       -1.175112    0.012384    0.004996
      2          6           0        0.260902   -0.039602   -0.015011
      3          7           0        1.431146    0.022179    0.006286
      4          1           0       -1.488972   -0.237006    0.986988
      5          1           0       -1.491385   -0.743163   -0.686429
      6          1           0       -1.552405    0.988225   -0.284470
 ---------------------------------------------------------------------

 SCF Done:  E(RB2PLYPD3) =  -132.531412943     A.U. after   12 cycles
 E2(B2PLYPD3) =    -0.1818372565D+00 E(B2PLYPD3) =    -0.13271325019916D+03

 The electronic state is 1-A.
 Alpha  occ. eigenvalues --  -14.84523 -10.66545 -10.66474  -1.03426  -0.90154
 Alpha  occ. eigenvalues --   -0.59711  -0.54996  -0.54636  -0.44744  -0.38543
 Alpha  occ. eigenvalues --   -0.38456
 Alpha virt. eigenvalues --    0.03776   0.07517   0.08146   0.10046   0.11279
 Alpha virt. eigenvalues --    0.11327   0.15398   0.15519   0.16568   0.20180
 Alpha virt. eigenvalues --    0.20238   0.25783   0.32907   0.34569   0.34860

 Mulliken charges:
               1
     1  C   -0.086620
     2  C    0.000930
     3  N   -0.216678
     4  H    0.101372
     5  H    0.099518
     6  H    0.101478
 Sum of Mulliken charges =   0.00000

 Dipole moment (field-independent basis, Debye):
    X=             -4.1335    Y=             -0.0395    Z=             -0.0025  Tot=              4.1337
 Quadrupole moment (field-independent basis, Debye-Ang):
   XX=            -21.1756   YY=            -17.6759   ZZ=            -17.7375
   XY=             -0.1369   XZ=             -0.0274   YZ=             -0.0091

 Normal termination of Gaussian 09 at Wed Aug 26 15:41:06 2020.
