 Gaussian 09, Revision D.01,
 Gaussian 09:  ES64L-G09RevD.01 24-Apr-2013

 --------------------
 #p B2PLYPD3/Def2QZVP
 --------------------

 ------------
 cyanomethane
 ------------
 Symbolic Z-matrix:
 Charge =  0 Multiplicity = 1

                         Standard orientation:
 ---------------------------------------------------------------------
 Center     Atomic      Atomic             Coordinates (Angstroms)
 Number     Number       Type             X           Y           Z
 ---------------------------------------------------------------------
      1          6           0        1.168710    0.003822   -0.011555
      2          6           0       -0.281979    0.003815   -0.011795
      3          7           0       -1.430440   -0.003687    0.009679
      4          1           0        1.598257   -0.384073    0.954653
      5          1           0        1.543103    0.995612   -0.116632
      6          1           0        1.551333   -0.631552   -0.765671
 ---------------------------------------------------------------------

 SCF Done:  E(RB2PLYPD3) =  -132.533991402     A.U. after   11 cycles
 E2(B2PLYPD3) =    -0.1799351749D+00 E(B2PLYPD3) =    -0.13271392657675D+03

 The electronic state is 1-A.
 Alpha  occ. eigenvalues --  -14.84089 -10.66797 -10.66121  -1.04412  -0.89433
 Alpha  occ. eigenvalues --   -0.60313  -0.54950  -0.52736  -0.44849  -0.39369
 Alpha  occ. eigenvalues --   -0.39072
 Alpha virt. eigenvalues --    0.03756   0.07628   0.08342   0.10179   0.11373
 Alpha virt. eigenvalues --    0.11752   0.15526   0.16549   0.16624   0.20004
 Alpha virt. eigenvalues --    0.20123   0.25484   0.32833   0.34204   0.35404

 Mulliken charges:
               1
     1  C   -0.074071
     2  C   -0.000968
     3  N   -0.202851
     4  H    0.086871
     5  H    0.095439
     6  H    0.095580
 Sum of Mulliken charges =   0.00000

 Dipole moment (field-independent basis, Debye):
    X=              4.1246    Y=              0.0039    Z=             -0.0140  Tot=              4.1246
 Quadrupole moment (field-independent basis, Debye-Ang):
   XX=            -20.8339   YY=            -17.6962   ZZ=            -17.8334
   XY=             -0.0495   XZ=              0.1012   YZ=              0.0547

 Normal termination of Gaussian 09 at Thu Aug 27 00:06:12 2020.
