 Gaussian 09, Revision D.01,
 Gaussian 09:  ES64L-G09RevD.01 24-Apr-2013

 --------------------
 #p B2PLYPD3/Def2QZVP
 --------------------

 ------------
 cyanomethane
 ------------
 Symbolic Z-matrix:
 Charge =  0 Multiplicity = 1

                         Standard orientation:
 ---------------------------------------------------------------------
 Center     Atomic      Atomic             Coordinates (Angstroms)
 Number     Number       Type             X           Y           Z
 ---------------------------------------------------------------------
      1          6           0       -1.172646    0.012029   -0.002902
      2          6           0        0.270450   -0.026414   -0.002527
      3          7           0        1.432098    0.012034    0.000213
      4          1           0       -1.519460   -0.197726    1.002929
      5          1           0       -1.554789   -0.774288   -0.654755
      6          1           0       -1.537257    0.974090   -0.317089
 ---------------------------------------------------------------------

 SCF Done:  E(RB2PLYPD3) =  -132.534637126     A.U. after   12 cycles
 E2(B2PLYPD3) =    -0.1810618042D+00 E(B2PLYPD3) =    -0.13271569892971D+03

 The electronic state is 1-A.
 Alpha  occ. eigenvalues --  -14.84349 -10.66838 -10.66370  -1.03822  -0.89652
 Alpha  occ. eigenvalues --   -0.59897  -0.54554  -0.53932  -0.44793  -0.38862
 Alpha  occ. eigenvalues --   -0.38734
 Alpha virt. eigenvalues --    0.03784   0.07739   0.07881   0.10125   0.11374
 Alpha virt. eigenvalues --    0.11474   0.15489   0.15896   0.16557   0.20119
 Alpha virt. eigenvalues --    0.20165   0.25631   0.32833   0.34397   0.34943

 Mulliken charges:
               1
     1  C   -0.082875
     2  C   -0.000038
     3  N   -0.210741
     4  H    0.096671
     5  H    0.096301
     6  H    0.100682
 Sum of Mulliken charges =   0.00000

 Dipole moment (field-independent basis, Debye):
    X=             -4.1321    Y=             -0.0219    Z=              0.0106  Tot=              4.1322
 Quadrupole moment (field-independent basis, Debye-Ang):
   XX=            -21.0464   YY=            -17.6859   ZZ=            -17.7930
   XY=             -0.0391   XZ=             -0.0032   YZ=             -0.0151

 Normal termination of Gaussian 09 at Thu Aug 27 00:03:37 2020.
