 Gaussian 09, Revision D.01,
 Gaussian 09:  ES64L-G09RevD.01 24-Apr-2013

 --------------------
 #p B2PLYPD3/Def2QZVP
 --------------------

 ------------
 cyanomethane
 ------------
 Symbolic Z-matrix:
 Charge =  0 Multiplicity = 1

                         Standard orientation:
 ---------------------------------------------------------------------
 Center     Atomic      Atomic             Coordinates (Angstroms)
 Number     Number       Type             X           Y           Z
 ---------------------------------------------------------------------
      1          6           0       -1.185693    0.015882    0.004411
      2          6           0        0.280400   -0.022828   -0.034575
      3          7           0        1.439051    0.012726    0.018372
      4          1           0       -1.555153   -0.077193    1.009928
      5          1           0       -1.515179   -0.892196   -0.525866
      6          1           0       -1.571267    0.921986   -0.431686
 ---------------------------------------------------------------------

 SCF Done:  E(RB2PLYPD3) =  -132.533376829     A.U. after   11 cycles
 E2(B2PLYPD3) =    -0.1810024168D+00 E(B2PLYPD3) =    -0.13271437924572D+03

 The electronic state is 1-A.
 Alpha  occ. eigenvalues --  -14.84368 -10.67113 -10.66457  -1.03865  -0.89191
 Alpha  occ. eigenvalues --   -0.59671  -0.54640  -0.53299  -0.44791  -0.39074
 Alpha  occ. eigenvalues --   -0.38824
 Alpha virt. eigenvalues --    0.03733   0.07729   0.08052   0.10102   0.11185
 Alpha virt. eigenvalues --    0.11498   0.15342   0.15742   0.16862   0.20049
 Alpha virt. eigenvalues --    0.20168   0.25293   0.32583   0.34200   0.35133

 Mulliken charges:
               1
     1  C   -0.084635
     2  C    0.000296
     3  N   -0.208999
     4  H    0.096239
     5  H    0.095625
     6  H    0.101474
 Sum of Mulliken charges =   0.00000

 Dipole moment (field-independent basis, Debye):
    X=             -4.1316    Y=             -0.0304    Z=             -0.0020  Tot=              4.1317
 Quadrupole moment (field-independent basis, Debye-Ang):
   XX=            -21.0329   YY=            -17.6368   ZZ=            -17.8912
   XY=             -0.0780   XZ=             -0.1706   YZ=             -0.0389

 Normal termination of Gaussian 09 at Wed Aug 26 13:10:47 2020.
