 Gaussian 09, Revision D.01,
 Gaussian 09:  ES64L-G09RevD.01 24-Apr-2013

 --------------------
 #p B2PLYPD3/Def2QZVP
 --------------------

 ------------
 cyanomethane
 ------------
 Symbolic Z-matrix:
 Charge =  0 Multiplicity = 1

                         Standard orientation:
 ---------------------------------------------------------------------
 Center     Atomic      Atomic             Coordinates (Angstroms)
 Number     Number       Type             X           Y           Z
 ---------------------------------------------------------------------
      1          6           0       -1.196881    0.002585    0.009327
      2          6           0        0.274567   -0.022195    0.004174
      3          7           0        1.444515    0.006769   -0.007572
      4          1           0       -1.477307   -0.172599    0.996551
      5          1           0       -1.611457   -0.761893   -0.680500
      6          1           0       -1.488956    1.004770   -0.344053
 ---------------------------------------------------------------------

 SCF Done:  E(RB2PLYPD3) =  -132.530880434     A.U. after   12 cycles
 E2(B2PLYPD3) =    -0.1818117658D+00 E(B2PLYPD3) =    -0.13271269219995D+03

 The electronic state is 1-A.
 Alpha  occ. eigenvalues --  -14.84533 -10.67239 -10.66667  -1.03389  -0.89329
 Alpha  occ. eigenvalues --   -0.58941  -0.55317  -0.53509  -0.44687  -0.38756
 Alpha  occ. eigenvalues --   -0.38597
 Alpha virt. eigenvalues --    0.03709   0.07492   0.08304   0.10192   0.11037
 Alpha virt. eigenvalues --    0.11293   0.15131   0.15689   0.16229   0.20145
 Alpha virt. eigenvalues --    0.20191   0.25031   0.32265   0.34121   0.35033

 Mulliken charges:
               1
     1  C   -0.093928
     2  C   -0.001321
     3  N   -0.214608
     4  H    0.107205
     5  H    0.099453
     6  H    0.103199
 Sum of Mulliken charges =   0.00000

 Dipole moment (field-independent basis, Debye):
    X=             -4.1493    Y=             -0.0016    Z=              0.0145  Tot=              4.1493
 Quadrupole moment (field-independent basis, Debye-Ang):
   XX=            -21.2148   YY=            -17.7690   ZZ=            -17.7270
   XY=              0.0326   XZ=              0.1105   YZ=             -0.0294

 Normal termination of Gaussian 09 at Wed Aug 26 12:52:20 2020.
