 Gaussian 09, Revision D.01,
 Gaussian 09:  ES64L-G09RevD.01 24-Apr-2013

 --------------------
 #p B2PLYPD3/Def2QZVP
 --------------------

 ------------
 cyanomethane
 ------------
 Symbolic Z-matrix:
 Charge =  0 Multiplicity = 1

                         Standard orientation:
 ---------------------------------------------------------------------
 Center     Atomic      Atomic             Coordinates (Angstroms)
 Number     Number       Type             X           Y           Z
 ---------------------------------------------------------------------
      1          6           0        1.161437   -0.000262   -0.018489
      2          6           0       -0.258622    0.055400   -0.003323
      3          7           0       -1.432214   -0.028918   -0.005556
      4          1           0        1.556410    1.031610   -0.115477
      5          1           0        1.637197   -0.748502   -0.701679
      6          1           0        1.415002   -0.411511    0.986924
 ---------------------------------------------------------------------

 SCF Done:  E(RB2PLYPD3) =  -132.525704791     A.U. after   13 cycles
 E2(B2PLYPD3) =    -0.1829962704D+00 E(B2PLYPD3) =    -0.13270870106189D+03

 The electronic state is 1-A.
 Alpha  occ. eigenvalues --  -14.84715 -10.67605 -10.66744  -1.03341  -0.89535
 Alpha  occ. eigenvalues --   -0.60132  -0.54721  -0.52509  -0.44874  -0.38457
 Alpha  occ. eigenvalues --   -0.37961
 Alpha virt. eigenvalues --    0.03516   0.06572   0.07463   0.09929   0.11153
 Alpha virt. eigenvalues --    0.11884   0.15142   0.15555   0.17327   0.20099
 Alpha virt. eigenvalues --    0.20414   0.26071   0.32501   0.33209   0.34900

 Mulliken charges:
               1
     1  C   -0.093322
     2  C    0.006946
     3  N   -0.216974
     4  H    0.103933
     5  H    0.101269
     6  H    0.098148
 Sum of Mulliken charges =   0.00000

 Dipole moment (field-independent basis, Debye):
    X=              4.1382    Y=             -0.0092    Z=              0.0630  Tot=              4.1387
 Quadrupole moment (field-independent basis, Debye-Ang):
   XX=            -21.1348   YY=            -17.5455   ZZ=            -18.0759
   XY=             -0.2579   XZ=             -0.0558   YZ=             -0.0020

 Normal termination of Gaussian 09 at Wed Aug 26 23:41:45 2020.
