 Gaussian 09, Revision D.01,
 Gaussian 09:  ES64L-G09RevD.01 24-Apr-2013

 --------------------
 #p B2PLYPD3/Def2QZVP
 --------------------

 ------------
 cyanomethane
 ------------
 Symbolic Z-matrix:
 Charge =  0 Multiplicity = 1

                         Standard orientation:
 ---------------------------------------------------------------------
 Center     Atomic      Atomic             Coordinates (Angstroms)
 Number     Number       Type             X           Y           Z
 ---------------------------------------------------------------------
      1          6           0        1.169301    0.006382    0.007337
      2          6           0       -0.273997   -0.003852   -0.020112
      3          7           0       -1.436956   -0.001400    0.006424
      4          1           0        1.527952    1.038266   -0.034615
      5          1           0        1.620088   -0.561377   -0.849885
      6          1           0        1.538826   -0.482270    0.916185
 ---------------------------------------------------------------------

 SCF Done:  E(RB2PLYPD3) =  -132.533509151     A.U. after   11 cycles
 E2(B2PLYPD3) =    -0.1814506823D+00 E(B2PLYPD3) =    -0.13271495983324D+03

 The electronic state is 1-A.
 Alpha  occ. eigenvalues --  -14.84479 -10.67443 -10.66522  -1.03834  -0.89146
 Alpha  occ. eigenvalues --   -0.60068  -0.54142  -0.52966  -0.44888  -0.38843
 Alpha  occ. eigenvalues --   -0.38716
 Alpha virt. eigenvalues --    0.03681   0.07252   0.07627   0.10135   0.11396
 Alpha virt. eigenvalues --    0.11571   0.15440   0.16361   0.16420   0.20102
 Alpha virt. eigenvalues --    0.20154   0.25613   0.32566   0.34245   0.34624

 Mulliken charges:
               1
     1  C   -0.083130
     2  C    0.001892
     3  N   -0.209674
     4  H    0.099855
     5  H    0.093025
     6  H    0.098032
 Sum of Mulliken charges =   0.00000

 Dipole moment (field-independent basis, Debye):
    X=              4.1353    Y=             -0.0029    Z=              0.0001  Tot=              4.1353
 Quadrupole moment (field-independent basis, Debye-Ang):
   XX=            -20.9687   YY=            -17.7436   ZZ=            -17.8789
   XY=             -0.0706   XZ=             -0.0040   YZ=             -0.0289

 Normal termination of Gaussian 09 at Wed Aug 26 22:18:09 2020.
