 Gaussian 09, Revision D.01,
 Gaussian 09:  ES64L-G09RevD.01 24-Apr-2013

 --------------------
 #p B2PLYPD3/Def2QZVP
 --------------------

 ------------
 cyanomethane
 ------------
 Symbolic Z-matrix:
 Charge =  0 Multiplicity = 1

                         Standard orientation:
 ---------------------------------------------------------------------
 Center     Atomic      Atomic             Coordinates (Angstroms)
 Number     Number       Type             X           Y           Z
 ---------------------------------------------------------------------
      1          6           0        1.176831    0.012970    0.005679
      2          6           0       -0.286817   -0.026112   -0.005235
      3          7           0       -1.432045    0.011952    0.003699
      4          1           0        1.583341   -0.299567    0.974935
      5          1           0        1.550802    1.005277   -0.246252
      6          1           0        1.550090   -0.710524   -0.757241
 ---------------------------------------------------------------------

 SCF Done:  E(RB2PLYPD3) =  -132.535226098     A.U. after   12 cycles
 E2(B2PLYPD3) =    -0.1799048413D+00 E(B2PLYPD3) =    -0.13271513093935D+03

 The electronic state is 1-A.
 Alpha  occ. eigenvalues --  -14.83993 -10.67493 -10.66066  -1.04472  -0.88775
 Alpha  occ. eigenvalues --   -0.59577  -0.53876  -0.53122  -0.44787  -0.39370
 Alpha  occ. eigenvalues --   -0.39202
 Alpha virt. eigenvalues --    0.03698   0.07904   0.07938   0.10178   0.11511
 Alpha virt. eigenvalues --    0.11626   0.15383   0.16068   0.16859   0.20032
 Alpha virt. eigenvalues --    0.20048   0.25305   0.32662   0.34127   0.34882

 Mulliken charges:
               1
     1  C   -0.087345
     2  C   -0.001802
     3  N   -0.200917
     4  H    0.096793
     5  H    0.099587
     6  H    0.093684
 Sum of Mulliken charges =   0.00000

 Dipole moment (field-independent basis, Debye):
    X=              4.1105    Y=             -0.0219    Z=             -0.0081  Tot=              4.1106
 Quadrupole moment (field-independent basis, Debye-Ang):
   XX=            -20.9835   YY=            -17.7272   ZZ=            -17.7837
   XY=              0.0481   XZ=              0.0409   YZ=             -0.0306

 Normal termination of Gaussian 09 at Thu Aug 27 00:10:22 2020.
