 Gaussian 09, Revision D.01,
 Gaussian 09:  ES64L-G09RevD.01 24-Apr-2013

 --------------------
 #p B2PLYPD3/Def2QZVP
 --------------------

 ------------
 cyanomethane
 ------------
 Symbolic Z-matrix:
 Charge =  0 Multiplicity = 1

                         Standard orientation:
 ---------------------------------------------------------------------
 Center     Atomic      Atomic             Coordinates (Angstroms)
 Number     Number       Type             X           Y           Z
 ---------------------------------------------------------------------
      1          6           0       -1.177000    0.003518    0.001647
      2          6           0        0.279433   -0.004067   -0.021904
      3          7           0        1.427445    0.004361    0.014028
      4          1           0       -1.570848   -0.062694    1.013910
      5          1           0       -1.486875   -0.892803   -0.539287
      6          1           0       -1.548988    0.928270   -0.451278
 ---------------------------------------------------------------------

 SCF Done:  E(RB2PLYPD3) =  -132.535087109     A.U. after   11 cycles
 E2(B2PLYPD3) =    -0.1799994031D+00 E(B2PLYPD3) =    -0.13271508651230D+03

 The electronic state is 1-A.
 Alpha  occ. eigenvalues --  -14.83955 -10.67171 -10.65998  -1.04319  -0.89220
 Alpha  occ. eigenvalues --   -0.59434  -0.54507  -0.53441  -0.44705  -0.39202
 Alpha  occ. eigenvalues --   -0.39088
 Alpha virt. eigenvalues --    0.03752   0.07825   0.08262   0.10170   0.11446
 Alpha virt. eigenvalues --    0.11632   0.15381   0.15922   0.16616   0.20033
 Alpha virt. eigenvalues --    0.20117   0.25383   0.32812   0.34374   0.34724

 Mulliken charges:
               1
     1  C   -0.090596
     2  C   -0.002879
     3  N   -0.203689
     4  H    0.096768
     5  H    0.100068
     6  H    0.100327
 Sum of Mulliken charges =   0.00000

 Dipole moment (field-independent basis, Debye):
    X=             -4.1070    Y=             -0.0140    Z=             -0.0047  Tot=              4.1070
 Quadrupole moment (field-independent basis, Debye-Ang):
   XX=            -21.1073   YY=            -17.5915   ZZ=            -17.8116
   XY=             -0.0529   XZ=             -0.1670   YZ=             -0.0005

 Normal termination of Gaussian 09 at Wed Aug 26 09:45:24 2020.
