 Gaussian 09, Revision D.01,
 Gaussian 09:  ES64L-G09RevD.01 24-Apr-2013

 --------------------
 #p B2PLYPD3/Def2QZVP
 --------------------

 ------------
 cyanomethane
 ------------
 Symbolic Z-matrix:
 Charge =  0 Multiplicity = 1

                         Standard orientation:
 ---------------------------------------------------------------------
 Center     Atomic      Atomic             Coordinates (Angstroms)
 Number     Number       Type             X           Y           Z
 ---------------------------------------------------------------------
      1          6           0        1.168693    0.003989    0.012357
      2          6           0       -0.278439   -0.019679   -0.008984
      3          7           0       -1.428926    0.011508    0.003371
      4          1           0        1.574618    1.020628   -0.205551
      5          1           0        1.539588   -0.671469   -0.781290
      6          1           0        1.546748   -0.335576    0.943004
 ---------------------------------------------------------------------

 SCF Done:  E(RB2PLYPD3) =  -132.534486827     A.U. after   12 cycles
 E2(B2PLYPD3) =    -0.1802489840D+00 E(B2PLYPD3) =    -0.13271473581102D+03

 The electronic state is 1-A.
 Alpha  occ. eigenvalues --  -14.84102 -10.67129 -10.66124  -1.04298  -0.89274
 Alpha  occ. eigenvalues --   -0.59985  -0.54301  -0.53207  -0.44813  -0.39193
 Alpha  occ. eigenvalues --   -0.38996
 Alpha virt. eigenvalues --    0.03722   0.07604   0.08087   0.10145   0.11483
 Alpha virt. eigenvalues --    0.11663   0.15507   0.16041   0.16817   0.20065
 Alpha virt. eigenvalues --    0.20097   0.25573   0.32821   0.34093   0.34988

 Mulliken charges:
               1
     1  C   -0.083384
     2  C   -0.000575
     3  N   -0.204237
     4  H    0.095593
     5  H    0.093488
     6  H    0.099114
 Sum of Mulliken charges =   0.00000

 Dipole moment (field-independent basis, Debye):
    X=              4.1150    Y=             -0.0280    Z=             -0.0051  Tot=              4.1151
 Quadrupole moment (field-independent basis, Debye-Ang):
   XX=            -20.9700   YY=            -17.7413   ZZ=            -17.7561
   XY=              0.0660   XZ=              0.0152   YZ=             -0.0318

 Normal termination of Gaussian 09 at Thu Aug 27 00:00:30 2020.
