 Gaussian 09, Revision D.01,
 Gaussian 09:  ES64L-G09RevD.01 24-Apr-2013

 --------------------
 #p B2PLYPD3/Def2QZVP
 --------------------

 ------------
 cyanomethane
 ------------
 Symbolic Z-matrix:
 Charge =  0 Multiplicity = 1

                         Standard orientation:
 ---------------------------------------------------------------------
 Center     Atomic      Atomic             Coordinates (Angstroms)
 Number     Number       Type             X           Y           Z
 ---------------------------------------------------------------------
      1          6           0        1.142458   -0.006117   -0.022523
      2          6           0       -0.276380    0.025844   -0.005685
      3          7           0       -1.418990   -0.017524    0.017094
      4          1           0        1.755295   -0.406364    0.890920
      5          1           0        1.498026    1.003241   -0.084196
      6          1           0        1.483147   -0.592573   -0.757136
 ---------------------------------------------------------------------

 SCF Done:  E(RB2PLYPD3) =  -132.520496183     A.U. after   12 cycles
 E2(B2PLYPD3) =    -0.1798390363D+00 E(B2PLYPD3) =    -0.13270033521946D+03

 The electronic state is 1-A.
 Alpha  occ. eigenvalues --  -14.84014 -10.66286 -10.65931  -1.04783  -0.90209
 Alpha  occ. eigenvalues --   -0.61583  -0.56145  -0.51290  -0.44966  -0.39517
 Alpha  occ. eigenvalues --   -0.38832
 Alpha virt. eigenvalues --    0.03560   0.06842   0.08679   0.10118   0.11478
 Alpha virt. eigenvalues --    0.12154   0.15701   0.16306   0.17630   0.19918
 Alpha virt. eigenvalues --    0.20341   0.26120   0.32435   0.34111   0.35848

 Mulliken charges:
               1
     1  C   -0.069266
     2  C    0.004698
     3  N   -0.200702
     4  H    0.076736
     5  H    0.090989
     6  H    0.097544
 Sum of Mulliken charges =   0.00000

 Dipole moment (field-independent basis, Debye):
    X=              4.1143    Y=              0.0328    Z=             -0.0523  Tot=              4.1148
 Quadrupole moment (field-independent basis, Debye-Ang):
   XX=            -20.5651   YY=            -17.6432   ZZ=            -17.9781
   XY=             -0.1654   XZ=              0.2336   YZ=              0.1507

 Normal termination of Gaussian 09 at Wed Aug 26 19:41:13 2020.
