 Gaussian 09, Revision D.01,
 Gaussian 09:  ES64L-G09RevD.01 24-Apr-2013

 --------------------
 #p B2PLYPD3/Def2QZVP
 --------------------

 ------------
 cyanomethane
 ------------
 Symbolic Z-matrix:
 Charge =  0 Multiplicity = 1

                         Standard orientation:
 ---------------------------------------------------------------------
 Center     Atomic      Atomic             Coordinates (Angstroms)
 Number     Number       Type             X           Y           Z
 ---------------------------------------------------------------------
      1          6           0       -1.182469    0.006037    0.010712
      2          6           0        0.276118   -0.022004   -0.025212
      3          7           0        1.437335    0.014722    0.012694
      4          1           0       -1.545326   -0.093041    0.985516
      5          1           0       -1.493773   -0.848982   -0.566019
      6          1           0       -1.584140    0.934771   -0.421356
 ---------------------------------------------------------------------

 SCF Done:  E(RB2PLYPD3) =  -132.532707736     A.U. after   12 cycles
 E2(B2PLYPD3) =    -0.1810148852D+00 E(B2PLYPD3) =    -0.13271372262118D+03

 The electronic state is 1-A.
 Alpha  occ. eigenvalues --  -14.84398 -10.66707 -10.66463  -1.03798  -0.89615
 Alpha  occ. eigenvalues --   -0.59930  -0.54461  -0.54083  -0.44794  -0.38944
 Alpha  occ. eigenvalues --   -0.38841
 Alpha virt. eigenvalues --    0.03787   0.07707   0.08223   0.10109   0.11293
 Alpha virt. eigenvalues --    0.11374   0.15394   0.15750   0.16818   0.20094
 Alpha virt. eigenvalues --    0.20175   0.25390   0.32706   0.34527   0.35062

 Mulliken charges:
               1
     1  C   -0.080967
     2  C    0.000144
     3  N   -0.210551
     4  H    0.097947
     5  H    0.096782
     6  H    0.096644
 Sum of Mulliken charges =   0.00000

 Dipole moment (field-independent basis, Debye):
    X=             -4.1370    Y=             -0.0338    Z=             -0.0035  Tot=              4.1371
 Quadrupole moment (field-independent basis, Debye-Ang):
   XX=            -21.0038   YY=            -17.6861   ZZ=            -17.8130
   XY=             -0.1148   XZ=             -0.1118   YZ=              0.0014

 Normal termination of Gaussian 09 at Wed Aug 26 15:00:03 2020.
