 Gaussian 09, Revision D.01,
 Gaussian 09:  ES64L-G09RevD.01 24-Apr-2013

 --------------------
 #p B2PLYPD3/Def2QZVP
 --------------------

 ------------
 cyanomethane
 ------------
 Symbolic Z-matrix:
 Charge =  0 Multiplicity = 1

                         Standard orientation:
 ---------------------------------------------------------------------
 Center     Atomic      Atomic             Coordinates (Angstroms)
 Number     Number       Type             X           Y           Z
 ---------------------------------------------------------------------
      1          6           0        1.183777   -0.004882   -0.000168
      2          6           0       -0.278310    0.028305   -0.000145
      3          7           0       -1.438205   -0.013196    0.000169
      4          1           0        1.559534    0.993598   -0.208776
      5          1           0        1.533975   -0.704109   -0.759181
      6          1           0        1.541123   -0.337657    0.968649
 ---------------------------------------------------------------------

 SCF Done:  E(RB2PLYPD3) =  -132.535076119     A.U. after   11 cycles
 E2(B2PLYPD3) =    -0.1809610533D+00 E(B2PLYPD3) =    -0.13271603717247D+03

 The electronic state is 1-A.
 Alpha  occ. eigenvalues --  -14.84345 -10.67148 -10.66425  -1.03846  -0.89216
 Alpha  occ. eigenvalues --   -0.59512  -0.54195  -0.53909  -0.44774  -0.38942
 Alpha  occ. eigenvalues --   -0.38910
 Alpha virt. eigenvalues --    0.03744   0.07798   0.07979   0.10167   0.11281
 Alpha virt. eigenvalues --    0.11416   0.15344   0.16101   0.16353   0.20081
 Alpha virt. eigenvalues --    0.20143   0.25281   0.32626   0.34583   0.34702

 Mulliken charges:
               1
     1  C   -0.085947
     2  C   -0.001070
     3  N   -0.209173
     4  H    0.098364
     5  H    0.099195
     6  H    0.098631
 Sum of Mulliken charges =   0.00000

 Dipole moment (field-independent basis, Debye):
    X=              4.1348    Y=              0.0109    Z=              0.0029  Tot=              4.1348
 Quadrupole moment (field-independent basis, Debye-Ang):
   XX=            -21.0579   YY=            -17.7253   ZZ=            -17.7847
   XY=             -0.0682   XZ=              0.0101   YZ=             -0.0024

 Normal termination of Gaussian 09 at Thu Aug 27 00:08:49 2020.
