 Gaussian 09, Revision D.01,
 Gaussian 09:  ES64L-G09RevD.01 24-Apr-2013

 --------------------
 #p B2PLYPD3/Def2QZVP
 --------------------

 ------------
 cyanomethane
 ------------
 Symbolic Z-matrix:
 Charge =  0 Multiplicity = 1

                         Standard orientation:
 ---------------------------------------------------------------------
 Center     Atomic      Atomic             Coordinates (Angstroms)
 Number     Number       Type             X           Y           Z
 ---------------------------------------------------------------------
      1          6           0       -1.176843   -0.001755   -0.005214
      2          6           0        0.277301    0.016580    0.000027
      3          7           0        1.428780   -0.010590   -0.000333
      4          1           0       -1.523946   -0.047445    1.000067
      5          1           0       -1.565156   -0.860432   -0.519314
      6          1           0       -1.515103    0.893058   -0.447303
 ---------------------------------------------------------------------

 SCF Done:  E(RB2PLYPD3) =  -132.534853259     A.U. after   11 cycles
 E2(B2PLYPD3) =    -0.1799022340D+00 E(B2PLYPD3) =    -0.13271475549300D+03

 The electronic state is 1-A.
 Alpha  occ. eigenvalues --  -14.84054 -10.66295 -10.66082  -1.04208  -0.89892
 Alpha  occ. eigenvalues --   -0.59894  -0.55028  -0.54158  -0.44736  -0.39197
 Alpha  occ. eigenvalues --   -0.39092
 Alpha virt. eigenvalues --    0.03883   0.08099   0.08500   0.10188   0.11349
 Alpha virt. eigenvalues --    0.11529   0.15489   0.16016   0.16635   0.20062
 Alpha virt. eigenvalues --    0.20132   0.25415   0.33006   0.34825   0.35225

 Mulliken charges:
               1
     1  C   -0.076796
     2  C   -0.003126
     3  N   -0.205955
     4  H    0.093532
     5  H    0.095298
     6  H    0.097046
 Sum of Mulliken charges =   0.00000

 Dipole moment (field-independent basis, Debye):
    X=             -4.1286    Y=              0.0166    Z=              0.0158  Tot=              4.1286
 Quadrupole moment (field-independent basis, Debye-Ang):
   XX=            -20.9631   YY=            -17.6323   ZZ=            -17.7578
   XY=              0.0926   XZ=             -0.0213   YZ=             -0.0157

 Normal termination of Gaussian 09 at Thu Aug 27 00:10:18 2020.
