 Gaussian 09, Revision D.01,
 Gaussian 09:  ES64L-G09RevD.01 24-Apr-2013

 --------------------
 #p B2PLYPD3/Def2QZVP
 --------------------

 ------------
 cyanomethane
 ------------
 Symbolic Z-matrix:
 Charge =  0 Multiplicity = 1

                         Standard orientation:
 ---------------------------------------------------------------------
 Center     Atomic      Atomic             Coordinates (Angstroms)
 Number     Number       Type             X           Y           Z
 ---------------------------------------------------------------------
      1          6           0       -1.194868    0.013094   -0.031716
      2          6           0        0.263648   -0.067351    0.028913
      3          7           0        1.455536    0.031753   -0.008946
      4          1           0       -1.577278    0.046775    0.947192
      5          1           0       -1.532732   -0.845738   -0.431800
      6          1           0       -1.491422    0.902239   -0.435949
 ---------------------------------------------------------------------

 SCF Done:  E(RB2PLYPD3) =  -132.516917533     A.U. after   13 cycles
 E2(B2PLYPD3) =    -0.1837479720D+00 E(B2PLYPD3) =    -0.13270066550464D+03

 The electronic state is 1-A.
 Alpha  occ. eigenvalues --  -14.85370 -10.67457 -10.65375  -1.02523  -0.90828
 Alpha  occ. eigenvalues --   -0.60601  -0.57476  -0.53639  -0.44915  -0.38392
 Alpha  occ. eigenvalues --   -0.38005
 Alpha virt. eigenvalues --    0.03771   0.07229   0.08000   0.10057   0.10702
 Alpha virt. eigenvalues --    0.11324   0.15094   0.15831   0.16812   0.20140
 Alpha virt. eigenvalues --    0.20383   0.25584   0.32507   0.34548   0.36154

 Mulliken charges:
               1
     1  C   -0.058676
     2  C    0.007061
     3  N   -0.225440
     4  H    0.080879
     5  H    0.097415
     6  H    0.098761
 Sum of Mulliken charges =   0.00000

 Dipole moment (field-independent basis, Debye):
    X=             -4.2026    Y=             -0.0227    Z=              0.0656  Tot=              4.2032
 Quadrupole moment (field-independent basis, Debye-Ang):
   XX=            -20.8342   YY=            -17.5573   ZZ=            -18.0908
   XY=             -0.1325   XZ=             -0.1518   YZ=              0.0278

 Normal termination of Gaussian 09 at Wed Aug 26 20:04:31 2020.
