 Gaussian 09, Revision D.01,
 Gaussian 09:  ES64L-G09RevD.01 24-Apr-2013

 --------------------
 #p B2PLYPD3/Def2QZVP
 --------------------

 ------------
 cyanomethane
 ------------
 Symbolic Z-matrix:
 Charge =  0 Multiplicity = 1

                         Standard orientation:
 ---------------------------------------------------------------------
 Center     Atomic      Atomic             Coordinates (Angstroms)
 Number     Number       Type             X           Y           Z
 ---------------------------------------------------------------------
      1          6           0        1.174203    0.004223    0.007567
      2          6           0       -0.277790   -0.017406   -0.020233
      3          7           0       -1.438048    0.009976    0.010087
      4          1           0        1.546962   -0.700081   -0.704821
      5          1           0        1.561794   -0.261524    0.962323
      6          1           0        1.579099    0.970873   -0.252114
 ---------------------------------------------------------------------

 SCF Done:  E(RB2PLYPD3) =  -132.534286344     A.U. after   11 cycles
 E2(B2PLYPD3) =    -0.1808439391D+00 E(B2PLYPD3) =    -0.13271513028290D+03

 The electronic state is 1-A.
 Alpha  occ. eigenvalues --  -14.84444 -10.66526 -10.66469  -1.03923  -0.89688
 Alpha  occ. eigenvalues --   -0.60519  -0.54273  -0.53960  -0.44897  -0.39001
 Alpha  occ. eigenvalues --   -0.38943
 Alpha virt. eigenvalues --    0.03822   0.07734   0.08049   0.10138   0.11368
 Alpha virt. eigenvalues --    0.11422   0.15523   0.16149   0.16868   0.20090
 Alpha virt. eigenvalues --    0.20157   0.25499   0.32868   0.34817   0.35094

 Mulliken charges:
               1
     1  C   -0.068782
     2  C    0.001363
     3  N   -0.209179
     4  H    0.091414
     5  H    0.093264
     6  H    0.091920
 Sum of Mulliken charges =   0.00000

 Dipole moment (field-independent basis, Debye):
    X=              4.1488    Y=             -0.0199    Z=             -0.0159  Tot=              4.1488
 Quadrupole moment (field-independent basis, Debye-Ang):
   XX=            -20.8064   YY=            -17.7938   ZZ=            -17.7898
   XY=              0.0625   XZ=              0.0538   YZ=             -0.0042

 Normal termination of Gaussian 09 at Wed Aug 26 23:08:01 2020.
