 Gaussian 09, Revision D.01,
 Gaussian 09:  ES64L-G09RevD.01 24-Apr-2013

 --------------------
 #p B2PLYPD3/Def2QZVP
 --------------------

 ------------
 cyanomethane
 ------------
 Symbolic Z-matrix:
 Charge =  0 Multiplicity = 1

                         Standard orientation:
 ---------------------------------------------------------------------
 Center     Atomic      Atomic             Coordinates (Angstroms)
 Number     Number       Type             X           Y           Z
 ---------------------------------------------------------------------
      1          6           0       -1.186507   -0.000043    0.010518
      2          6           0        0.293961    0.034781   -0.014252
      3          7           0        1.437547   -0.016648    0.002202
      4          1           0       -1.504387   -0.416746    0.919499
      5          1           0       -1.601103   -0.656384   -0.782729
      6          1           0       -1.602068    0.981238   -0.129775
 ---------------------------------------------------------------------

 SCF Done:  E(RB2PLYPD3) =  -132.534160704     A.U. after   12 cycles
 E2(B2PLYPD3) =    -0.1795531287D+00 E(B2PLYPD3) =    -0.13271371383291D+03

 The electronic state is 1-A.
 Alpha  occ. eigenvalues --  -14.84015 -10.66956 -10.66133  -1.04506  -0.89005
 Alpha  occ. eigenvalues --   -0.59706  -0.54683  -0.52969  -0.44796  -0.39564
 Alpha  occ. eigenvalues --   -0.39366
 Alpha virt. eigenvalues --    0.03763   0.07984   0.08503   0.10243   0.11287
 Alpha virt. eigenvalues --    0.11603   0.15319   0.16478   0.16678   0.19948
 Alpha virt. eigenvalues --    0.20082   0.24994   0.32585   0.34477   0.35413

 Mulliken charges:
               1
     1  C   -0.077137
     2  C   -0.002858
     3  N   -0.200350
     4  H    0.097023
     5  H    0.088911
     6  H    0.094410
 Sum of Mulliken charges =   0.00000

 Dipole moment (field-independent basis, Debye):
    X=             -4.1291    Y=              0.0089    Z=              0.0083  Tot=              4.1292
 Quadrupole moment (field-independent basis, Debye-Ang):
   XX=            -20.8370   YY=            -17.6999   ZZ=            -17.8293
   XY=              0.1062   XZ=              0.0375   YZ=             -0.0541

 Normal termination of Gaussian 09 at Wed Aug 26 14:09:36 2020.
