 Gaussian 09, Revision D.01,
 Gaussian 09:  ES64L-G09RevD.01 24-Apr-2013

 --------------------
 #p B2PLYPD3/Def2QZVP
 --------------------

 ------------
 cyanomethane
 ------------
 Symbolic Z-matrix:
 Charge =  0 Multiplicity = 1

                         Standard orientation:
 ---------------------------------------------------------------------
 Center     Atomic      Atomic             Coordinates (Angstroms)
 Number     Number       Type             X           Y           Z
 ---------------------------------------------------------------------
      1          6           0        1.178021    0.006954   -0.000971
      2          6           0       -0.277152    0.000078   -0.020051
      3          7           0       -1.441882   -0.003650    0.010252
      4          1           0        1.523929    1.027777    0.043139
      5          1           0        1.585794   -0.500087   -0.856803
      6          1           0        1.578238   -0.544334    0.868036
 ---------------------------------------------------------------------

 SCF Done:  E(RB2PLYPD3) =  -132.533850818     A.U. after   11 cycles
 E2(B2PLYPD3) =    -0.1813868171D+00 E(B2PLYPD3) =    -0.13271523763466D+03

 The electronic state is 1-A.
 Alpha  occ. eigenvalues --  -14.84547 -10.67031 -10.66627  -1.03733  -0.89333
 Alpha  occ. eigenvalues --   -0.60172  -0.54605  -0.53121  -0.44883  -0.38922
 Alpha  occ. eigenvalues --   -0.38749
 Alpha virt. eigenvalues --    0.03737   0.07471   0.07896   0.10158   0.11209
 Alpha virt. eigenvalues --    0.11507   0.15393   0.16355   0.16471   0.20082
 Alpha virt. eigenvalues --    0.20183   0.25396   0.32644   0.34353   0.35009

 Mulliken charges:
               1
     1  C   -0.076449
     2  C    0.001330
     3  N   -0.210758
     4  H    0.099062
     5  H    0.094510
     6  H    0.092305
 Sum of Mulliken charges =   0.00000

 Dipole moment (field-independent basis, Debye):
    X=              4.1515    Y=             -0.0090    Z=             -0.0127  Tot=              4.1516
 Quadrupole moment (field-independent basis, Debye-Ang):
   XX=            -20.9042   YY=            -17.7043   ZZ=            -17.9202
   XY=             -0.1093   XZ=              0.0544   YZ=              0.0268

 Normal termination of Gaussian 09 at Thu Aug 27 00:08:13 2020.
