 Gaussian 09, Revision D.01,
 Gaussian 09:  ES64L-G09RevD.01 24-Apr-2013

 --------------------
 #p B2PLYPD3/Def2QZVP
 --------------------

 ------------
 cyanomethane
 ------------
 Symbolic Z-matrix:
 Charge =  0 Multiplicity = 1

                         Standard orientation:
 ---------------------------------------------------------------------
 Center     Atomic      Atomic             Coordinates (Angstroms)
 Number     Number       Type             X           Y           Z
 ---------------------------------------------------------------------
      1          6           0        1.172331   -0.009947    0.006952
      2          6           0       -0.286862    0.017837   -0.044253
      3          7           0       -1.440331   -0.012509    0.024414
      4          1           0        1.615193    0.009565    1.008598
      5          1           0        1.525813    0.884634   -0.470774
      6          1           0        1.628499   -0.853973   -0.484915
 ---------------------------------------------------------------------

 SCF Done:  E(RB2PLYPD3) =  -132.532607188     A.U. after   12 cycles
 E2(B2PLYPD3) =    -0.1807252088D+00 E(B2PLYPD3) =    -0.13271333239655D+03

 The electronic state is 1-A.
 Alpha  occ. eigenvalues --  -14.84447 -10.66879 -10.66528  -1.04197  -0.89201
 Alpha  occ. eigenvalues --   -0.60778  -0.53925  -0.52934  -0.44999  -0.39227
 Alpha  occ. eigenvalues --   -0.39075
 Alpha virt. eigenvalues --    0.03688   0.07387   0.08120   0.10070   0.11349
 Alpha virt. eigenvalues --    0.11605   0.15513   0.16094   0.17478   0.20001
 Alpha virt. eigenvalues --    0.20223   0.25506   0.32831   0.34507   0.35084

 Mulliken charges:
               1
     1  C   -0.067037
     2  C    0.004423
     3  N   -0.205371
     4  H    0.088342
     5  H    0.089155
     6  H    0.090487
 Sum of Mulliken charges =   0.00000

 Dipole moment (field-independent basis, Debye):
    X=              4.1382    Y=              0.0343    Z=             -0.0346  Tot=              4.1384
 Quadrupole moment (field-independent basis, Debye-Ang):
   XX=            -20.6580   YY=            -17.8095   ZZ=            -17.9054
   XY=             -0.1014   XZ=              0.1716   YZ=              0.0089

 Normal termination of Gaussian 09 at Wed Aug 26 15:14:39 2020.
