 Gaussian 09, Revision D.01,
 Gaussian 09:  ES64L-G09RevD.01 24-Apr-2013

 --------------------
 #p B2PLYPD3/Def2QZVP
 --------------------

 ------------
 cyanomethane
 ------------
 Symbolic Z-matrix:
 Charge =  0 Multiplicity = 1

                         Standard orientation:
 ---------------------------------------------------------------------
 Center     Atomic      Atomic             Coordinates (Angstroms)
 Number     Number       Type             X           Y           Z
 ---------------------------------------------------------------------
      1          6           0        1.178295   -0.018442   -0.028125
      2          6           0       -0.271516    0.002306   -0.014921
      3          7           0       -1.429785   -0.001534    0.023561
      4          1           0        1.715442   -0.099895    0.960671
      5          1           0        1.422955    0.987727   -0.329998
      6          1           0        1.429425   -0.780276   -0.537325
 ---------------------------------------------------------------------

 SCF Done:  E(RB2PLYPD3) =  -132.511479337     A.U. after   12 cycles
 E2(B2PLYPD3) =    -0.1807767002D+00 E(B2PLYPD3) =    -0.13269225603685D+03

 The electronic state is 1-A.
 Alpha  occ. eigenvalues --  -14.84231 -10.66283 -10.65930  -1.03976  -0.90690
 Alpha  occ. eigenvalues --   -0.60485  -0.58095  -0.51629  -0.44732  -0.39237
 Alpha  occ. eigenvalues --   -0.38503
 Alpha virt. eigenvalues --    0.03734   0.07115   0.09233   0.10195   0.10911
 Alpha virt. eigenvalues --    0.11855   0.15239   0.15775   0.17025   0.20013
 Alpha virt. eigenvalues --    0.20288   0.25438   0.32393   0.33697   0.36184

 Mulliken charges:
               1
     1  C   -0.087044
     2  C    0.000975
     3  N   -0.210887
     4  H    0.081714
     5  H    0.102717
     6  H    0.112527
 Sum of Mulliken charges =   0.00000

 Dipole moment (field-independent basis, Debye):
    X=              4.1347    Y=              0.0234    Z=             -0.0097  Tot=              4.1348
 Quadrupole moment (field-independent basis, Debye-Ang):
   XX=            -20.9404   YY=            -17.4124   ZZ=            -18.0393
   XY=             -0.0122   XZ=              0.4073   YZ=              0.1285

 Normal termination of Gaussian 09 at Wed Aug 26 21:48:17 2020.
