 Gaussian 09, Revision D.01,
 Gaussian 09:  ES64L-G09RevD.01 24-Apr-2013

 --------------------
 #p B2PLYPD3/Def2QZVP
 --------------------

 ------------
 cyanomethane
 ------------
 Symbolic Z-matrix:
 Charge =  0 Multiplicity = 1

                         Standard orientation:
 ---------------------------------------------------------------------
 Center     Atomic      Atomic             Coordinates (Angstroms)
 Number     Number       Type             X           Y           Z
 ---------------------------------------------------------------------
      1          6           0       -1.186652    0.025445    0.027313
      2          6           0        0.305219   -0.048407   -0.055250
      3          7           0        1.436190    0.015047    0.022626
      4          1           0       -1.495846    1.092119   -0.177037
      5          1           0       -1.570882   -0.370991    0.941243
      6          1           0       -1.698005   -0.688691   -0.754966
 ---------------------------------------------------------------------

 SCF Done:  E(RB2PLYPD3) =  -132.526431171     A.U. after   12 cycles
 E2(B2PLYPD3) =    -0.1795857163D+00 E(B2PLYPD3) =    -0.13270601688701D+03

 The electronic state is 1-A.
 Alpha  occ. eigenvalues --  -14.83835 -10.68470 -10.65979  -1.04931  -0.87650
 Alpha  occ. eigenvalues --   -0.59172  -0.53961  -0.51144  -0.44803  -0.39864
 Alpha  occ. eigenvalues --   -0.39404
 Alpha virt. eigenvalues --    0.03454   0.07362   0.08154   0.10219   0.11414
 Alpha virt. eigenvalues --    0.11777   0.14995   0.16192   0.17205   0.19849
 Alpha virt. eigenvalues --    0.19982   0.25112   0.31610   0.33783   0.34748

 Mulliken charges:
               1
     1  C   -0.095264
     2  C    0.000310
     3  N   -0.193522
     4  H    0.104521
     5  H    0.101025
     6  H    0.082930
 Sum of Mulliken charges =   0.00000

 Dipole moment (field-independent basis, Debye):
    X=             -4.0835    Y=             -0.0452    Z=             -0.0053  Tot=              4.0838
 Quadrupole moment (field-independent basis, Debye-Ang):
   XX=            -20.9520   YY=            -17.5832   ZZ=            -18.0359
   XY=              0.1126   XZ=             -0.1422   YZ=             -0.1371

 Normal termination of Gaussian 09 at Wed Aug 26 23:07:12 2020.
