 Gaussian 09, Revision D.01,
 Gaussian 09:  ES64L-G09RevD.01 24-Apr-2013

 --------------------
 #p B2PLYPD3/Def2QZVP
 --------------------

 ------------
 cyanomethane
 ------------
 Symbolic Z-matrix:
 Charge =  0 Multiplicity = 1

                         Standard orientation:
 ---------------------------------------------------------------------
 Center     Atomic      Atomic             Coordinates (Angstroms)
 Number     Number       Type             X           Y           Z
 ---------------------------------------------------------------------
      1          6           0       -1.201692   -0.025493   -0.010075
      2          6           0        0.297428    0.059351    0.021263
      3          7           0        1.442040   -0.030768   -0.012386
      4          1           0       -1.523854   -0.020866    0.917718
      5          1           0       -1.596914   -0.822497   -0.462319
      6          1           0       -1.547935    0.855591   -0.435825
 ---------------------------------------------------------------------

 SCF Done:  E(RB2PLYPD3) =  -132.517257939     A.U. after   12 cycles
 E2(B2PLYPD3) =    -0.1792603454D+00 E(B2PLYPD3) =    -0.13269651828469D+03

 The electronic state is 1-A.
 Alpha  occ. eigenvalues --  -14.84165 -10.66282 -10.64873  -1.04352  -0.90625
 Alpha  occ. eigenvalues --   -0.60439  -0.55655  -0.54866  -0.44813  -0.39674
 Alpha  occ. eigenvalues --   -0.39515
 Alpha virt. eigenvalues --    0.03935   0.08435   0.09415   0.10132   0.11204
 Alpha virt. eigenvalues --    0.11298   0.15383   0.15773   0.17526   0.20046
 Alpha virt. eigenvalues --    0.20128   0.24879   0.32850   0.35559   0.36111

 Mulliken charges:
               1
     1  C   -0.055034
     2  C    0.001228
     3  N   -0.203374
     4  H    0.085857
     5  H    0.087667
     6  H    0.083656
 Sum of Mulliken charges =   0.00000

 Dipole moment (field-independent basis, Debye):
    X=             -4.1530    Y=              0.0563    Z=              0.0573  Tot=              4.1538
 Quadrupole moment (field-independent basis, Debye-Ang):
   XX=            -20.5810   YY=            -17.6018   ZZ=            -17.8177
   XY=              0.1734   XZ=              0.0099   YZ=              0.0188

 Normal termination of Gaussian 09 at Wed Aug 26 23:49:59 2020.
