 Gaussian 09, Revision D.01,
 Gaussian 09:  ES64L-G09RevD.01 24-Apr-2013

 --------------------
 #p B2PLYPD3/Def2QZVP
 --------------------

 ------------
 cyanomethane
 ------------
 Symbolic Z-matrix:
 Charge =  0 Multiplicity = 1

                         Standard orientation:
 ---------------------------------------------------------------------
 Center     Atomic      Atomic             Coordinates (Angstroms)
 Number     Number       Type             X           Y           Z
 ---------------------------------------------------------------------
      1          6           0        1.192913   -0.011511   -0.017316
      2          6           0       -0.291957   -0.004598    0.029359
      3          7           0       -1.436274    0.003747   -0.012541
      4          1           0        1.550811    1.052550   -0.022450
      5          1           0        1.534296   -0.515080   -0.859860
      6          1           0        1.563075   -0.467039    0.897834
 ---------------------------------------------------------------------

 SCF Done:  E(RB2PLYPD3) =  -132.533411831     A.U. after   11 cycles
 E2(B2PLYPD3) =    -0.1796105369D+00 E(B2PLYPD3) =    -0.13271302236831D+03

 The electronic state is 1-A.
 Alpha  occ. eigenvalues --  -14.83928 -10.67196 -10.66047  -1.04420  -0.88901
 Alpha  occ. eigenvalues --   -0.59176  -0.54903  -0.53020  -0.44690  -0.39538
 Alpha  occ. eigenvalues --   -0.39263
 Alpha virt. eigenvalues --    0.03743   0.08103   0.08513   0.10214   0.11284
 Alpha virt. eigenvalues --    0.11552   0.15218   0.16003   0.16684   0.19988
 Alpha virt. eigenvalues --    0.20068   0.24892   0.32501   0.33997   0.35406

 Mulliken charges:
               1
     1  C   -0.087797
     2  C   -0.004749
     3  N   -0.201056
     4  H    0.094233
     5  H    0.103377
     6  H    0.095992
 Sum of Mulliken charges =   0.00000

 Dipole moment (field-independent basis, Debye):
    X=              4.1207    Y=             -0.0075    Z=              0.0239  Tot=              4.1208
 Quadrupole moment (field-independent basis, Debye-Ang):
   XX=            -21.0329   YY=            -17.7442   ZZ=            -17.6941
   XY=              0.0236   XZ=             -0.0357   YZ=              0.0509

 Normal termination of Gaussian 09 at Wed Aug 26 11:08:59 2020.
