 Gaussian 09, Revision D.01,
 Gaussian 09:  ES64L-G09RevD.01 24-Apr-2013

 --------------------
 #p B2PLYPD3/Def2QZVP
 --------------------

 ------------
 cyanomethane
 ------------
 Symbolic Z-matrix:
 Charge =  0 Multiplicity = 1

                         Standard orientation:
 ---------------------------------------------------------------------
 Center     Atomic      Atomic             Coordinates (Angstroms)
 Number     Number       Type             X           Y           Z
 ---------------------------------------------------------------------
      1          6           0        1.185616    0.011090    0.005360
      2          6           0       -0.287705   -0.044805   -0.007956
      3          7           0       -1.422552    0.022212    0.007725
      4          1           0        1.579038   -0.055486    0.991803
      5          1           0        1.495443    0.957149   -0.457741
      6          1           0        1.495921   -0.854859   -0.572563
 ---------------------------------------------------------------------

 SCF Done:  E(RB2PLYPD3) =  -132.534470775     A.U. after   11 cycles
 E2(B2PLYPD3) =    -0.1789404542D+00 E(B2PLYPD3) =    -0.13271341122970D+03

 The electronic state is 1-A.
 Alpha  occ. eigenvalues --  -14.83588 -10.67045 -10.65639  -1.04726  -0.89100
 Alpha  occ. eigenvalues --   -0.58948  -0.54334  -0.53978  -0.44591  -0.39538
 Alpha  occ. eigenvalues --   -0.39451
 Alpha virt. eigenvalues --    0.03755   0.08290   0.08681   0.10202   0.11522
 Alpha virt. eigenvalues --    0.11588   0.15304   0.15687   0.16773   0.19971
 Alpha virt. eigenvalues --    0.20052   0.25198   0.32896   0.34470   0.34829

 Mulliken charges:
               1
     1  C   -0.095269
     2  C   -0.006813
     3  N   -0.197544
     4  H    0.098827
     5  H    0.101829
     6  H    0.098970
 Sum of Mulliken charges =   0.00000

 Dipole moment (field-independent basis, Debye):
    X=              4.0849    Y=             -0.0386    Z=             -0.0025  Tot=              4.0851
 Quadrupole moment (field-independent basis, Debye-Ang):
   XX=            -21.1592   YY=            -17.5589   ZZ=            -17.7187
   XY=              0.1127   XZ=              0.1404   YZ=             -0.0044

 Normal termination of Gaussian 09 at Wed Aug 26 13:41:12 2020.
