 Gaussian 09, Revision D.01,
 Gaussian 09:  ES64L-G09RevD.01 24-Apr-2013

 --------------------
 #p B2PLYPD3/Def2QZVP
 --------------------

 ------------
 cyanomethane
 ------------
 Symbolic Z-matrix:
 Charge =  0 Multiplicity = 1

                         Standard orientation:
 ---------------------------------------------------------------------
 Center     Atomic      Atomic             Coordinates (Angstroms)
 Number     Number       Type             X           Y           Z
 ---------------------------------------------------------------------
      1          6           0        1.157912    0.020468    0.002070
      2          6           0       -0.289370   -0.067901   -0.023666
      3          7           0       -1.423111    0.025623    0.010300
      4          1           0        1.475292    1.078387   -0.023006
      5          1           0        1.669833   -0.519739   -0.747133
      6          1           0        1.605402   -0.453406    0.827620
 ---------------------------------------------------------------------

 SCF Done:  E(RB2PLYPD3) =  -132.529878207     A.U. after   11 cycles
 E2(B2PLYPD3) =    -0.1791524739D+00 E(B2PLYPD3) =    -0.13270903068131D+03

 The electronic state is 1-A.
 Alpha  occ. eigenvalues --  -14.83893 -10.66322 -10.65911  -1.04935  -0.89603
 Alpha  occ. eigenvalues --   -0.61457  -0.54318  -0.52580  -0.44922  -0.39655
 Alpha  occ. eigenvalues --   -0.39402
 Alpha virt. eigenvalues --    0.03680   0.07935   0.08364   0.10224   0.11617
 Alpha virt. eigenvalues --    0.11862   0.15441   0.16523   0.17372   0.19884
 Alpha virt. eigenvalues --    0.20081   0.25967   0.33262   0.34586   0.35168

 Mulliken charges:
               1
     1  C   -0.062100
     2  C    0.006115
     3  N   -0.197876
     4  H    0.093817
     5  H    0.079137
     6  H    0.080907
 Sum of Mulliken charges =   0.00000

 Dipole moment (field-independent basis, Debye):
    X=              4.1186    Y=             -0.0928    Z=             -0.0023  Tot=              4.1197
 Quadrupole moment (field-independent basis, Debye-Ang):
   XX=            -20.5236   YY=            -17.4963   ZZ=            -18.0992
   XY=             -0.1160   XZ=              0.0665   YZ=             -0.0202

 Normal termination of Gaussian 09 at Wed Aug 26 23:04:13 2020.
