 Gaussian 09, Revision D.01,
 Gaussian 09:  ES64L-G09RevD.01 24-Apr-2013

 --------------------
 #p B2PLYPD3/Def2QZVP
 --------------------

 ------------
 cyanomethane
 ------------
 Symbolic Z-matrix:
 Charge =  0 Multiplicity = 1

                         Standard orientation:
 ---------------------------------------------------------------------
 Center     Atomic      Atomic             Coordinates (Angstroms)
 Number     Number       Type             X           Y           Z
 ---------------------------------------------------------------------
      1          6           0        1.172597   -0.009638   -0.000406
      2          6           0       -0.284783   -0.020937   -0.003013
      3          7           0       -1.440715    0.014335    0.003111
      4          1           0        1.612927    1.008508   -0.130945
      5          1           0        1.550302   -0.580022   -0.750645
      6          1           0        1.594892   -0.345380    0.880323
 ---------------------------------------------------------------------

 SCF Done:  E(RB2PLYPD3) =  -132.528255440     A.U. after   11 cycles
 E2(B2PLYPD3) =    -0.1803679782D+00 E(B2PLYPD3) =    -0.13270862341833D+03

 The electronic state is 1-A.
 Alpha  occ. eigenvalues --  -14.84441 -10.66524 -10.65978  -1.04167  -0.89996
 Alpha  occ. eigenvalues --   -0.61314  -0.55157  -0.52953  -0.44992  -0.39329
 Alpha  occ. eigenvalues --   -0.39077
 Alpha virt. eigenvalues --    0.03784   0.07653   0.08489   0.10177   0.11257
 Alpha virt. eigenvalues --    0.11580   0.15562   0.16637   0.17013   0.20037
 Alpha virt. eigenvalues --    0.20171   0.25368   0.32814   0.34504   0.35852

 Mulliken charges:
               1
     1  C   -0.054136
     2  C    0.004365
     3  N   -0.206743
     4  H    0.081690
     5  H    0.089183
     6  H    0.085641
 Sum of Mulliken charges =   0.00000

 Dipole moment (field-independent basis, Debye):
    X=              4.1587    Y=             -0.0396    Z=              0.0016  Tot=              4.1589
 Quadrupole moment (field-independent basis, Debye-Ang):
   XX=            -20.5474   YY=            -17.8175   ZZ=            -17.8418
   XY=              0.0816   XZ=              0.0557   YZ=              0.0401

 Normal termination of Gaussian 09 at Wed Aug 26 13:00:42 2020.
