 Gaussian 09, Revision D.01,
 Gaussian 09:  ES64L-G09RevD.01 24-Apr-2013

 --------------------
 #p B2PLYPD3/Def2QZVP
 --------------------

 ------------
 cyanomethane
 ------------
 Symbolic Z-matrix:
 Charge =  0 Multiplicity = 1

                         Standard orientation:
 ---------------------------------------------------------------------
 Center     Atomic      Atomic             Coordinates (Angstroms)
 Number     Number       Type             X           Y           Z
 ---------------------------------------------------------------------
      1          6           0        1.165609    0.009050   -0.003603
      2          6           0       -0.274927    0.032360    0.000793
      3          7           0       -1.431307   -0.019733   -0.003859
      4          1           0        1.541833    1.019744   -0.094759
      5          1           0        1.614233   -0.664859   -0.804606
      6          1           0        1.518988   -0.465215    0.943241
 ---------------------------------------------------------------------

 SCF Done:  E(RB2PLYPD3) =  -132.531619330     A.U. after   12 cycles
 E2(B2PLYPD3) =    -0.1811309317D+00 E(B2PLYPD3) =    -0.13271275026178D+03

 The electronic state is 1-A.
 Alpha  occ. eigenvalues --  -14.84304 -10.67636 -10.66320  -1.04064  -0.89037
 Alpha  occ. eigenvalues --   -0.59884  -0.54597  -0.52228  -0.44862  -0.39029
 Alpha  occ. eigenvalues --   -0.38672
 Alpha virt. eigenvalues --    0.03576   0.07010   0.07891   0.10102   0.11298
 Alpha virt. eigenvalues --    0.11857   0.15463   0.16044   0.16790   0.19998
 Alpha virt. eigenvalues --    0.20216   0.25672   0.32681   0.33640   0.34798

 Mulliken charges:
               1
     1  C   -0.087661
     2  C    0.001399
     3  N   -0.206749
     4  H    0.102734
     5  H    0.094374
     6  H    0.095903
 Sum of Mulliken charges =   0.00000

 Dipole moment (field-independent basis, Debye):
    X=              4.1159    Y=              0.0053    Z=              0.0244  Tot=              4.1160
 Quadrupole moment (field-independent basis, Debye-Ang):
   XX=            -21.0168   YY=            -17.6233   ZZ=            -17.9580
   XY=             -0.1991   XZ=             -0.0427   YZ=             -0.0290

 Normal termination of Gaussian 09 at Wed Aug 26 16:19:08 2020.
