 Gaussian 09, Revision D.01,
 Gaussian 09:  ES64L-G09RevD.01 24-Apr-2013

 --------------------
 #p B2PLYPD3/Def2QZVP
 --------------------

 ------------
 cyanomethane
 ------------
 Symbolic Z-matrix:
 Charge =  0 Multiplicity = 1

                         Standard orientation:
 ---------------------------------------------------------------------
 Center     Atomic      Atomic             Coordinates (Angstroms)
 Number     Number       Type             X           Y           Z
 ---------------------------------------------------------------------
      1          6           0       -1.171788    0.014847   -0.000402
      2          6           0        0.278201    0.003026   -0.006771
      3          7           0        1.430735   -0.006726    0.004496
      4          1           0       -1.503219    0.907664   -0.441015
      5          1           0       -1.566752   -0.093162    1.019215
      6          1           0       -1.583656   -0.874658   -0.566640
 ---------------------------------------------------------------------

 SCF Done:  E(RB2PLYPD3) =  -132.533337893     A.U. after   11 cycles
 E2(B2PLYPD3) =    -0.1803749707D+00 E(B2PLYPD3) =    -0.13271371286334D+03

 The electronic state is 1-A.
 Alpha  occ. eigenvalues --  -14.84136 -10.67144 -10.66169  -1.04215  -0.89302
 Alpha  occ. eigenvalues --   -0.59823  -0.55014  -0.52697  -0.44797  -0.39206
 Alpha  occ. eigenvalues --   -0.38910
 Alpha virt. eigenvalues --    0.03716   0.07444   0.08259   0.10172   0.11337
 Alpha virt. eigenvalues --    0.11729   0.15444   0.16325   0.16448   0.20026
 Alpha virt. eigenvalues --    0.20144   0.25473   0.32654   0.33971   0.35191

 Mulliken charges:
               1
     1  C   -0.084045
     2  C   -0.001330
     3  N   -0.205130
     4  H    0.102624
     5  H    0.095655
     6  H    0.092227
 Sum of Mulliken charges =   0.00000

 Dipole moment (field-independent basis, Debye):
    X=             -4.1195    Y=              0.0085    Z=              0.0016  Tot=              4.1195
 Quadrupole moment (field-independent basis, Debye-Ang):
   XX=            -20.9957   YY=            -17.6943   ZZ=            -17.8031
   XY=              0.1089   XZ=             -0.0604   YZ=             -0.0747

 Normal termination of Gaussian 09 at Wed Aug 26 10:03:47 2020.
