 Gaussian 09, Revision D.01,
 Gaussian 09:  ES64L-G09RevD.01 24-Apr-2013

 --------------------
 #p B2PLYPD3/Def2QZVP
 --------------------

 ------------
 cyanomethane
 ------------
 Symbolic Z-matrix:
 Charge =  0 Multiplicity = 1

                         Standard orientation:
 ---------------------------------------------------------------------
 Center     Atomic      Atomic             Coordinates (Angstroms)
 Number     Number       Type             X           Y           Z
 ---------------------------------------------------------------------
      1          6           0        1.172827   -0.023581   -0.010994
      2          6           0       -0.295102   -0.038238    0.019350
      3          7           0       -1.440359    0.033355   -0.009619
      4          1           0        1.739892    0.963231   -0.375468
      5          1           0        1.496404   -0.758146   -0.569681
      6          1           0        1.579866   -0.067656    0.962350
 ---------------------------------------------------------------------

 SCF Done:  E(RB2PLYPD3) =  -132.515396263     A.U. after   12 cycles
 E2(B2PLYPD3) =    -0.1801753619D+00 E(B2PLYPD3) =    -0.13269557162482D+03

 The electronic state is 1-A.
 Alpha  occ. eigenvalues --  -14.84315 -10.66640 -10.66388  -1.04574  -0.89546
 Alpha  occ. eigenvalues --   -0.60820  -0.56354  -0.50687  -0.45034  -0.39763
 Alpha  occ. eigenvalues --   -0.39033
 Alpha virt. eigenvalues --    0.03248   0.07054   0.09000   0.10180   0.11020
 Alpha virt. eigenvalues --    0.11907   0.15504   0.16357   0.17611   0.19874
 Alpha virt. eigenvalues --    0.20340   0.25274   0.31840   0.33708   0.36073

 Mulliken charges:
               1
     1  C   -0.068801
     2  C    0.003824
     3  N   -0.200436
     4  H    0.077820
     5  H    0.100770
     6  H    0.086824
 Sum of Mulliken charges =   0.00000

 Dipole moment (field-independent basis, Debye):
    X=              4.1284    Y=             -0.0781    Z=              0.0608  Tot=              4.1296
 Quadrupole moment (field-independent basis, Debye-Ang):
   XX=            -20.5051   YY=            -17.8547   ZZ=            -17.9008
   XY=              0.3184   XZ=              0.0421   YZ=              0.1903

 Normal termination of Gaussian 09 at Wed Aug 26 22:47:27 2020.
