 Gaussian 09, Revision D.01,
 Gaussian 09:  ES64L-G09RevD.01 24-Apr-2013

 --------------------
 #p B2PLYPD3/Def2QZVP
 --------------------

 ------------
 cyanomethane
 ------------
 Symbolic Z-matrix:
 Charge =  0 Multiplicity = 1

                         Standard orientation:
 ---------------------------------------------------------------------
 Center     Atomic      Atomic             Coordinates (Angstroms)
 Number     Number       Type             X           Y           Z
 ---------------------------------------------------------------------
      1          6           0        1.176548   -0.009519    0.004883
      2          6           0       -0.280257   -0.019322    0.008201
      3          7           0       -1.428184    0.014106   -0.006433
      4          1           0        1.586127    0.881581   -0.534981
      5          1           0        1.514716   -0.863995   -0.483376
      6          1           0        1.518697    0.056717    0.984879
 ---------------------------------------------------------------------

 SCF Done:  E(RB2PLYPD3) =  -132.532468922     A.U. after   11 cycles
 E2(B2PLYPD3) =    -0.1796863513D+00 E(B2PLYPD3) =    -0.13271215527350D+03

 The electronic state is 1-A.
 Alpha  occ. eigenvalues --  -14.83991 -10.66374 -10.66015  -1.04351  -0.89811
 Alpha  occ. eigenvalues --   -0.59863  -0.55765  -0.53202  -0.44744  -0.39380
 Alpha  occ. eigenvalues --   -0.39097
 Alpha virt. eigenvalues --    0.03803   0.07879   0.08778   0.10204   0.11271
 Alpha virt. eigenvalues --    0.11655   0.15488   0.16181   0.16581   0.20019
 Alpha virt. eigenvalues --    0.20127   0.25367   0.32871   0.34340   0.35651

 Mulliken charges:
               1
     1  C   -0.077291
     2  C   -0.003604
     3  N   -0.203802
     4  H    0.089158
     5  H    0.098351
     6  H    0.097188
 Sum of Mulliken charges =   0.00000

 Dipole moment (field-independent basis, Debye):
    X=              4.1211    Y=             -0.0211    Z=              0.0165  Tot=              4.1212
 Quadrupole moment (field-independent basis, Debye-Ang):
   XX=            -20.9403   YY=            -17.7054   ZZ=            -17.6928
   XY=              0.1357   XZ=             -0.0504   YZ=              0.0771

 Normal termination of Gaussian 09 at Thu Aug 27 00:01:37 2020.
