 Gaussian 09, Revision D.01,
 Gaussian 09:  ES64L-G09RevD.01 24-Apr-2013

 --------------------
 #p B2PLYPD3/Def2QZVP
 --------------------

 ------------
 cyanomethane
 ------------
 Symbolic Z-matrix:
 Charge =  0 Multiplicity = 1

                         Standard orientation:
 ---------------------------------------------------------------------
 Center     Atomic      Atomic             Coordinates (Angstroms)
 Number     Number       Type             X           Y           Z
 ---------------------------------------------------------------------
      1          6           0        1.178070   -0.017328   -0.023767
      2          6           0       -0.284765    0.051694    0.034188
      3          7           0       -1.448190   -0.032528   -0.018369
      4          1           0        1.495308    1.019750   -0.046113
      5          1           0        1.690406   -0.555556   -0.703702
      6          1           0        1.591788   -0.442692    0.815870
 ---------------------------------------------------------------------

 SCF Done:  E(RB2PLYPD3) =  -132.517298988     A.U. after   13 cycles
 E2(B2PLYPD3) =    -0.1816362767D+00 E(B2PLYPD3) =    -0.13269893526475D+03

 The electronic state is 1-A.
 Alpha  occ. eigenvalues --  -14.84860 -10.67018 -10.65642  -1.03796  -0.90286
 Alpha  occ. eigenvalues --   -0.62762  -0.54146  -0.53113  -0.45118  -0.39004
 Alpha  occ. eigenvalues --   -0.38922
 Alpha virt. eigenvalues --    0.03814   0.07251   0.08202   0.09778   0.11207
 Alpha virt. eigenvalues --    0.11718   0.15280   0.16191   0.17921   0.20019
 Alpha virt. eigenvalues --    0.20654   0.25561   0.32838   0.34572   0.35546

 Mulliken charges:
               1
     1  C   -0.051308
     2  C    0.017775
     3  N   -0.211170
     4  H    0.084394
     5  H    0.083081
     6  H    0.077227
 Sum of Mulliken charges =   0.00000

 Dipole moment (field-independent basis, Debye):
    X=              4.1646    Y=              0.0008    Z=              0.0648  Tot=              4.1651
 Quadrupole moment (field-independent basis, Debye-Ang):
   XX=            -20.4181   YY=            -17.6334   ZZ=            -18.1747
   XY=             -0.3963   XZ=             -0.0396   YZ=              0.0031

 Normal termination of Gaussian 09 at Wed Aug 26 22:51:26 2020.
