 Gaussian 09, Revision D.01,
 Gaussian 09:  ES64L-G09RevD.01 24-Apr-2013

 --------------------
 #p B2PLYPD3/Def2QZVP
 --------------------

 ------------
 cyanomethane
 ------------
 Symbolic Z-matrix:
 Charge =  0 Multiplicity = 1

                         Standard orientation:
 ---------------------------------------------------------------------
 Center     Atomic      Atomic             Coordinates (Angstroms)
 Number     Number       Type             X           Y           Z
 ---------------------------------------------------------------------
      1          6           0        1.168806   -0.004763   -0.004022
      2          6           0       -0.283667    0.013871   -0.010418
      3          7           0       -1.429593   -0.004157    0.006971
      4          1           0        1.529156   -0.814676   -0.632174
      5          1           0        1.573355   -0.169447    1.025095
      6          1           0        1.593803    0.958574   -0.355072
 ---------------------------------------------------------------------

 SCF Done:  E(RB2PLYPD3) =  -132.535000403     A.U. after   11 cycles
 E2(B2PLYPD3) =    -0.1799799003D+00 E(B2PLYPD3) =    -0.13271498030321D+03

 The electronic state is 1-A.
 Alpha  occ. eigenvalues --  -14.84012 -10.67481 -10.66053  -1.04498  -0.88886
 Alpha  occ. eigenvalues --   -0.59844  -0.53924  -0.52891  -0.44824  -0.39299
 Alpha  occ. eigenvalues --   -0.39163
 Alpha virt. eigenvalues --    0.03687   0.07600   0.07970   0.10177   0.11552
 Alpha virt. eigenvalues --    0.11728   0.15458   0.16471   0.16569   0.20011
 Alpha virt. eigenvalues --    0.20079   0.25464   0.32739   0.34175   0.34740

 Mulliken charges:
               1
     1  C   -0.085029
     2  C   -0.001195
     3  N   -0.200945
     4  H    0.098615
     5  H    0.093651
     6  H    0.094903
 Sum of Mulliken charges =   0.00000

 Dipole moment (field-independent basis, Debye):
    X=              4.1096    Y=             -0.0001    Z=             -0.0059  Tot=              4.1096
 Quadrupole moment (field-independent basis, Debye-Ang):
   XX=            -20.9428   YY=            -17.7246   ZZ=            -17.8097
   XY=              0.0078   XZ=              0.0727   YZ=              0.0302

 Normal termination of Gaussian 09 at Thu Aug 27 00:14:06 2020.
