 Gaussian 09, Revision D.01,
 Gaussian 09:  ES64L-G09RevD.01 24-Apr-2013

 --------------------
 #p B2PLYPD3/Def2QZVP
 --------------------

 ------------
 cyanomethane
 ------------
 Symbolic Z-matrix:
 Charge =  0 Multiplicity = 1

                         Standard orientation:
 ---------------------------------------------------------------------
 Center     Atomic      Atomic             Coordinates (Angstroms)
 Number     Number       Type             X           Y           Z
 ---------------------------------------------------------------------
      1          6           0       -1.196228   -0.022219    0.036913
      2          6           0        0.291940   -0.007620   -0.064761
      3          7           0        1.445212    0.006803    0.029494
      4          1           0       -1.550848   -0.019294    0.978342
      5          1           0       -1.565312   -0.813841   -0.562906
      6          1           0       -1.574596    0.964554   -0.454805
 ---------------------------------------------------------------------

 SCF Done:  E(RB2PLYPD3) =  -132.524396873     A.U. after   12 cycles
 E2(B2PLYPD3) =    -0.1808015260D+00 E(B2PLYPD3) =    -0.13270519839918D+03

 The electronic state is 1-A.
 Alpha  occ. eigenvalues --  -14.84407 -10.67089 -10.66542  -1.04020  -0.89020
 Alpha  occ. eigenvalues --   -0.60001  -0.55594  -0.51950  -0.44845  -0.39428
 Alpha  occ. eigenvalues --   -0.38902
 Alpha virt. eigenvalues --    0.03645   0.07484   0.08367   0.10055   0.11064
 Alpha virt. eigenvalues --    0.11571   0.15276   0.15716   0.17183   0.19994
 Alpha virt. eigenvalues --    0.20139   0.25102   0.31880   0.33482   0.35909

 Mulliken charges:
               1
     1  C   -0.081530
     2  C    0.002840
     3  N   -0.206592
     4  H    0.103353
     5  H    0.098074
     6  H    0.083855
 Sum of Mulliken charges =   0.00000

 Dipole moment (field-independent basis, Debye):
    X=             -4.1222    Y=             -0.0113    Z=             -0.0357  Tot=              4.1224
 Quadrupole moment (field-independent basis, Debye-Ang):
   XX=            -20.9358   YY=            -17.8439   ZZ=            -17.7488
   XY=             -0.0534   XZ=             -0.1464   YZ=              0.0885

 Normal termination of Gaussian 09 at Wed Aug 26 23:45:38 2020.
