 Gaussian 09, Revision D.01,
 Gaussian 09:  ES64L-G09RevD.01 24-Apr-2013

 --------------------
 #p B2PLYPD3/Def2QZVP
 --------------------

 ------------
 cyanomethane
 ------------
 Symbolic Z-matrix:
 Charge =  0 Multiplicity = 1

                         Standard orientation:
 ---------------------------------------------------------------------
 Center     Atomic      Atomic             Coordinates (Angstroms)
 Number     Number       Type             X           Y           Z
 ---------------------------------------------------------------------
      1          6           0        1.168152   -0.010273   -0.013157
      2          6           0       -0.270147    0.000934   -0.030036
      3          7           0       -1.438692    0.000082    0.012220
      4          1           0        1.566521    1.042086   -0.127272
      5          1           0        1.619921   -0.661729   -0.682044
      6          1           0        1.496364   -0.324895    0.982934
 ---------------------------------------------------------------------

 SCF Done:  E(RB2PLYPD3) =  -132.529963789     A.U. after   12 cycles
 E2(B2PLYPD3) =    -0.1818445828D+00 E(B2PLYPD3) =    -0.13271180837155D+03

 The electronic state is 1-A.
 Alpha  occ. eigenvalues --  -14.84647 -10.66918 -10.66710  -1.03624  -0.89651
 Alpha  occ. eigenvalues --   -0.60884  -0.54619  -0.52915  -0.44934  -0.38828
 Alpha  occ. eigenvalues --   -0.38452
 Alpha virt. eigenvalues --    0.03688   0.07208   0.07746   0.10111   0.11202
 Alpha virt. eigenvalues --    0.11670   0.15523   0.15943   0.17001   0.20121
 Alpha virt. eigenvalues --    0.20227   0.25688   0.32571   0.33864   0.35174

 Mulliken charges:
               1
     1  C   -0.074824
     2  C    0.005032
     3  N   -0.213174
     4  H    0.093083
     5  H    0.098039
     6  H    0.091843
 Sum of Mulliken charges =   0.00000

 Dipole moment (field-independent basis, Debye):
    X=              4.1550    Y=             -0.0199    Z=              0.0224  Tot=              4.1551
 Quadrupole moment (field-independent basis, Debye-Ang):
   XX=            -20.8720   YY=            -17.7195   ZZ=            -17.9372
   XY=             -0.0546   XZ=              0.0776   YZ=              0.0651

 Normal termination of Gaussian 09 at Wed Aug 26 14:48:29 2020.
