 Gaussian 09, Revision D.01,
 Gaussian 09:  ES64L-G09RevD.01 24-Apr-2013

 --------------------
 #p B2PLYPD3/Def2QZVP
 --------------------

 ------------
 cyanomethane
 ------------
 Symbolic Z-matrix:
 Charge =  0 Multiplicity = 1

                         Standard orientation:
 ---------------------------------------------------------------------
 Center     Atomic      Atomic             Coordinates (Angstroms)
 Number     Number       Type             X           Y           Z
 ---------------------------------------------------------------------
      1          6           0       -1.157956   -0.039375    0.010263
      2          6           0        0.293055    0.071672    0.007704
      3          7           0        1.410598   -0.021623   -0.004722
      4          1           0       -1.526682   -0.319295    0.958614
      5          1           0       -1.449204   -0.771664   -0.762553
      6          1           0       -1.708893    1.048541   -0.270811
 ---------------------------------------------------------------------

 SCF Done:  E(RB2PLYPD3) =  -132.520766675     A.U. after   12 cycles
 E2(B2PLYPD3) =    -0.1785441304D+00 E(B2PLYPD3) =    -0.13269931080573D+03

 The electronic state is 1-A.
 Alpha  occ. eigenvalues --  -14.83344 -10.68269 -10.65312  -1.05570  -0.88294
 Alpha  occ. eigenvalues --   -0.59325  -0.54476  -0.50989  -0.44764  -0.40026
 Alpha  occ. eigenvalues --   -0.39422
 Alpha virt. eigenvalues --    0.03388   0.06787   0.08515   0.10150   0.11788
 Alpha virt. eigenvalues --    0.12248   0.15431   0.16367   0.16822   0.19853
 Alpha virt. eigenvalues --    0.19915   0.25789   0.30518   0.34444   0.34936

 Mulliken charges:
               1
     1  C   -0.105417
     2  C   -0.001835
     3  N   -0.185605
     4  H    0.104932
     5  H    0.105244
     6  H    0.082681
 Sum of Mulliken charges =   0.00000

 Dipole moment (field-independent basis, Debye):
    X=             -4.0001    Y=             -0.0282    Z=              0.0324  Tot=              4.0003
 Quadrupole moment (field-independent basis, Debye-Ang):
   XX=            -21.1076   YY=            -17.6974   ZZ=            -17.7050
   XY=              0.0766   XZ=             -0.0384   YZ=              0.0526

 Normal termination of Gaussian 09 at Wed Aug 26 21:42:26 2020.
