 Gaussian 09, Revision D.01,
 Gaussian 09:  ES64L-G09RevD.01 24-Apr-2013

 --------------------
 #p B2PLYPD3/Def2QZVP
 --------------------

 ------------
 cyanomethane
 ------------
 Symbolic Z-matrix:
 Charge =  0 Multiplicity = 1

                         Standard orientation:
 ---------------------------------------------------------------------
 Center     Atomic      Atomic             Coordinates (Angstroms)
 Number     Number       Type             X           Y           Z
 ---------------------------------------------------------------------
      1          6           0        1.178822   -0.009442   -0.002891
      2          6           0       -0.262958    0.027168    0.013042
      3          7           0       -1.421463   -0.016155   -0.015861
      4          1           0        1.486257    1.000355   -0.282619
      5          1           0        1.600675   -0.767525   -0.653583
      6          1           0        1.368128   -0.226097    0.986326
 ---------------------------------------------------------------------

 SCF Done:  E(RB2PLYPD3) =  -132.528275317     A.U. after   12 cycles
 E2(B2PLYPD3) =    -0.1808013645D+00 E(B2PLYPD3) =    -0.13270907668174D+03

 The electronic state is 1-A.
 Alpha  occ. eigenvalues --  -14.84065 -10.66413 -10.66103  -1.03860  -0.90368
 Alpha  occ. eigenvalues --   -0.59184  -0.55764  -0.54328  -0.44584  -0.38768
 Alpha  occ. eigenvalues --   -0.38701
 Alpha virt. eigenvalues --    0.03814   0.07648   0.08843   0.10098   0.11407
 Alpha virt. eigenvalues --    0.11456   0.14988   0.15449   0.16763   0.20161
 Alpha virt. eigenvalues --    0.20225   0.25620   0.32821   0.34660   0.34900

 Mulliken charges:
               1
     1  C   -0.098166
     2  C   -0.001732
     3  N   -0.212661
     4  H    0.103232
     5  H    0.102000
     6  H    0.107326
 Sum of Mulliken charges =   0.00000

 Dipole moment (field-independent basis, Debye):
    X=              4.1058    Y=              0.0138    Z=              0.0466  Tot=              4.1061
 Quadrupole moment (field-independent basis, Debye-Ang):
   XX=            -21.3078   YY=            -17.5549   ZZ=            -17.7020
   XY=             -0.1586   XZ=             -0.1957   YZ=             -0.0234

 Normal termination of Gaussian 09 at Wed Aug 26 21:44:34 2020.
