 Gaussian 09, Revision D.01,
 Gaussian 09:  ES64L-G09RevD.01 24-Apr-2013

 --------------------
 #p B2PLYPD3/Def2QZVP
 --------------------

 ------------
 cyanomethane
 ------------
 Symbolic Z-matrix:
 Charge =  0 Multiplicity = 1

                         Standard orientation:
 ---------------------------------------------------------------------
 Center     Atomic      Atomic             Coordinates (Angstroms)
 Number     Number       Type             X           Y           Z
 ---------------------------------------------------------------------
      1          6           0       -1.175859    0.000223   -0.004198
      2          6           0        0.282946    0.024379   -0.000638
      3          7           0        1.425638   -0.011026    0.002653
      4          1           0       -1.563338   -0.134632    1.013825
      5          1           0       -1.505493   -0.850508   -0.597433
      6          1           0       -1.553158    0.914708   -0.405949
 ---------------------------------------------------------------------

 SCF Done:  E(RB2PLYPD3) =  -132.536088625     A.U. after   11 cycles
 E2(B2PLYPD3) =    -0.1794208018D+00 E(B2PLYPD3) =    -0.13271550942638D+03

 The electronic state is 1-A.
 Alpha  occ. eigenvalues --  -14.83824 -10.66943 -10.65861  -1.04540  -0.89282
 Alpha  occ. eigenvalues --   -0.59503  -0.54577  -0.53569  -0.44705  -0.39397
 Alpha  occ. eigenvalues --   -0.39258
 Alpha virt. eigenvalues --    0.03787   0.08040   0.08407   0.10211   0.11463
 Alpha virt. eigenvalues --    0.11682   0.15425   0.16292   0.16419   0.20002
 Alpha virt. eigenvalues --    0.20082   0.25349   0.32912   0.34447   0.34997

 Mulliken charges:
               1
     1  C   -0.085991
     2  C   -0.004481
     3  N   -0.200651
     4  H    0.094705
     5  H    0.097986
     6  H    0.098432
 Sum of Mulliken charges =   0.00000

 Dipole moment (field-independent basis, Debye):
    X=             -4.1065    Y=              0.0103    Z=             -0.0020  Tot=              4.1065
 Quadrupole moment (field-independent basis, Debye-Ang):
   XX=            -21.0265   YY=            -17.6438   ZZ=            -17.7400
   XY=              0.0466   XZ=             -0.0543   YZ=             -0.0104

 Normal termination of Gaussian 09 at Thu Aug 27 00:01:18 2020.
