 Gaussian 09, Revision D.01,
 Gaussian 09:  ES64L-G09RevD.01 24-Apr-2013

 --------------------
 #p B2PLYPD3/Def2QZVP
 --------------------

 ------------
 cyanomethane
 ------------
 Symbolic Z-matrix:
 Charge =  0 Multiplicity = 1

                         Standard orientation:
 ---------------------------------------------------------------------
 Center     Atomic      Atomic             Coordinates (Angstroms)
 Number     Number       Type             X           Y           Z
 ---------------------------------------------------------------------
      1          6           0       -1.181663    0.014948   -0.004998
      2          6           0        0.288974    0.022454   -0.016390
      3          7           0        1.447361   -0.005807   -0.001819
      4          1           0       -1.665235   -0.633961   -0.781335
      5          1           0       -1.709125    0.970677   -0.008492
      6          1           0       -1.401030   -0.520478    0.930894
 ---------------------------------------------------------------------

 SCF Done:  E(RB2PLYPD3) =  -132.529451018     A.U. after   13 cycles
 E2(B2PLYPD3) =    -0.1813205000D+00 E(B2PLYPD3) =    -0.13271077151763D+03

 The electronic state is 1-A.
 Alpha  occ. eigenvalues --  -14.84478 -10.67740 -10.66739  -1.04034  -0.88666
 Alpha  occ. eigenvalues --   -0.60383  -0.53671  -0.52230  -0.44939  -0.39227
 Alpha  occ. eigenvalues --   -0.38791
 Alpha virt. eigenvalues --    0.03624   0.07166   0.07854   0.10253   0.11265
 Alpha virt. eigenvalues --    0.11751   0.15061   0.15798   0.17866   0.20102
 Alpha virt. eigenvalues --    0.20302   0.25074   0.32092   0.33789   0.35106

 Mulliken charges:
               1
     1  C   -0.082854
     2  C    0.007194
     3  N   -0.207455
     4  H    0.090040
     5  H    0.098252
     6  H    0.094824
 Sum of Mulliken charges =   0.00000

 Dipole moment (field-independent basis, Debye):
    X=             -4.1636    Y=             -0.0331    Z=              0.0416  Tot=              4.1640
 Quadrupole moment (field-independent basis, Debye-Ang):
   XX=            -20.7330   YY=            -17.7810   ZZ=            -18.0451
   XY=              0.0026   XZ=              0.1106   YZ=             -0.0243

 Normal termination of Gaussian 09 at Wed Aug 26 21:19:10 2020.
