 Gaussian 09, Revision D.01,
 Gaussian 09:  ES64L-G09RevD.01 24-Apr-2013

 --------------------
 #p B2PLYPD3/Def2QZVP
 --------------------

 ------------
 cyanomethane
 ------------
 Symbolic Z-matrix:
 Charge =  0 Multiplicity = 1

                         Standard orientation:
 ---------------------------------------------------------------------
 Center     Atomic      Atomic             Coordinates (Angstroms)
 Number     Number       Type             X           Y           Z
 ---------------------------------------------------------------------
      1          6           0        1.177937   -0.032547    0.022706
      2          6           0       -0.300159    0.013346   -0.061367
      3          7           0       -1.435015   -0.005414    0.033612
      4          1           0        1.641014    0.063084    0.990801
      5          1           0        1.543929    0.954090   -0.500982
      6          1           0        1.593498   -0.864070   -0.493132
 ---------------------------------------------------------------------

 SCF Done:  E(RB2PLYPD3) =  -132.526606968     A.U. after   12 cycles
 E2(B2PLYPD3) =    -0.1797485272D+00 E(B2PLYPD3) =    -0.13270635549560D+03

 The electronic state is 1-A.
 Alpha  occ. eigenvalues --  -14.83998 -10.67734 -10.66137  -1.04863  -0.88318
 Alpha  occ. eigenvalues --   -0.60239  -0.54406  -0.51179  -0.44929  -0.39879
 Alpha  occ. eigenvalues --   -0.39172
 Alpha virt. eigenvalues --    0.03561   0.07248   0.08303   0.10036   0.11304
 Alpha virt. eigenvalues --    0.11934   0.15454   0.15744   0.17960   0.19929
 Alpha virt. eigenvalues --    0.20220   0.25364   0.31912   0.33393   0.35644

 Mulliken charges:
               1
     1  C   -0.084236
     2  C    0.004951
     3  N   -0.195725
     4  H    0.095234
     5  H    0.080829
     6  H    0.098947
 Sum of Mulliken charges =   0.00000

 Dipole moment (field-independent basis, Debye):
    X=              4.0896    Y=              0.0216    Z=             -0.0345  Tot=              4.0898
 Quadrupole moment (field-independent basis, Debye-Ang):
   XX=            -20.7846   YY=            -17.7456   ZZ=            -17.9275
   XY=             -0.0204   XZ=              0.2913   YZ=              0.1317

 Normal termination of Gaussian 09 at Wed Aug 26 22:21:20 2020.
