 Gaussian 09, Revision D.01,
 Gaussian 09:  ES64L-G09RevD.01 24-Apr-2013

 --------------------
 #p B2PLYPD3/Def2QZVP
 --------------------

 ------------
 cyanomethane
 ------------
 Symbolic Z-matrix:
 Charge =  0 Multiplicity = 1

                         Standard orientation:
 ---------------------------------------------------------------------
 Center     Atomic      Atomic             Coordinates (Angstroms)
 Number     Number       Type             X           Y           Z
 ---------------------------------------------------------------------
      1          6           0       -1.186670    0.027983   -0.006754
      2          6           0        0.274993   -0.035070   -0.003724
      3          7           0        1.441855    0.012594    0.002823
      4          1           0       -1.545033   -0.051345    1.002944
      5          1           0       -1.572113   -0.893492   -0.510230
      6          1           0       -1.505776    0.899207   -0.449605
 ---------------------------------------------------------------------

 SCF Done:  E(RB2PLYPD3) =  -132.530429791     A.U. after   12 cycles
 E2(B2PLYPD3) =    -0.1814975775D+00 E(B2PLYPD3) =    -0.13271192736896D+03

 The electronic state is 1-A.
 Alpha  occ. eigenvalues --  -14.84546 -10.66775 -10.66628  -1.03569  -0.89609
 Alpha  occ. eigenvalues --   -0.59792  -0.55773  -0.53012  -0.44796  -0.38951
 Alpha  occ. eigenvalues --   -0.38586
 Alpha virt. eigenvalues --    0.03790   0.07657   0.08040   0.10116   0.11089
 Alpha virt. eigenvalues --    0.11441   0.15327   0.15797   0.16640   0.20074
 Alpha virt. eigenvalues --    0.20214   0.25337   0.32412   0.34014   0.35597

 Mulliken charges:
               1
     1  C   -0.080379
     2  C    0.000642
     3  N   -0.213157
     4  H    0.094597
     5  H    0.092775
     6  H    0.105522
 Sum of Mulliken charges =   0.00000

 Dipole moment (field-independent basis, Debye):
    X=             -4.1483    Y=             -0.0241    Z=              0.0237  Tot=              4.1484
 Quadrupole moment (field-independent basis, Debye-Ang):
   XX=            -21.0303   YY=            -17.6381   ZZ=            -17.8955
   XY=              0.0113   XZ=             -0.0878   YZ=             -0.0852

 Normal termination of Gaussian 09 at Wed Aug 26 14:50:24 2020.
