 Gaussian 09, Revision D.01,
 Gaussian 09:  ES64L-G09RevD.01 24-Apr-2013

 --------------------
 #p B2PLYPD3/Def2QZVP
 --------------------

 ------------
 cyanomethane
 ------------
 Symbolic Z-matrix:
 Charge =  0 Multiplicity = 1

                         Standard orientation:
 ---------------------------------------------------------------------
 Center     Atomic      Atomic             Coordinates (Angstroms)
 Number     Number       Type             X           Y           Z
 ---------------------------------------------------------------------
      1          6           0        1.172041   -0.019056    0.003992
      2          6           0       -0.275771    0.013621   -0.040095
      3          7           0       -1.424226   -0.005970    0.024613
      4          1           0        1.587089    0.029985    0.996059
      5          1           0        1.492923    0.931201   -0.478049
      6          1           0        1.511948   -0.886787   -0.473683
 ---------------------------------------------------------------------

 SCF Done:  E(RB2PLYPD3) =  -132.532024045     A.U. after   12 cycles
 E2(B2PLYPD3) =    -0.1801012888D+00 E(B2PLYPD3) =    -0.13271212533344D+03

 The electronic state is 1-A.
 Alpha  occ. eigenvalues --  -14.84013 -10.66689 -10.66018  -1.04287  -0.89665
 Alpha  occ. eigenvalues --   -0.59966  -0.55532  -0.52888  -0.44742  -0.39271
 Alpha  occ. eigenvalues --   -0.38878
 Alpha virt. eigenvalues --    0.03785   0.07664   0.08464   0.10091   0.11305
 Alpha virt. eigenvalues --    0.11759   0.15497   0.15746   0.16926   0.20020
 Alpha virt. eigenvalues --    0.20164   0.25635   0.32849   0.34065   0.35415

 Mulliken charges:
               1
     1  C   -0.084424
     2  C   -0.000570
     3  N   -0.205210
     4  H    0.093430
     5  H    0.094214
     6  H    0.102561
 Sum of Mulliken charges =   0.00000

 Dipole moment (field-independent basis, Debye):
    X=              4.1029    Y=              0.0201    Z=             -0.0111  Tot=              4.1030
 Quadrupole moment (field-independent basis, Debye-Ang):
   XX=            -21.0490   YY=            -17.5299   ZZ=            -17.8638
   XY=             -0.0196   XZ=              0.2685   YZ=              0.0684

 Normal termination of Gaussian 09 at Wed Aug 26 13:16:32 2020.
