 Gaussian 09, Revision D.01,
 Gaussian 09:  ES64L-G09RevD.01 24-Apr-2013

 --------------------
 #p B2PLYPD3/Def2QZVP
 --------------------

 ------------
 cyanomethane
 ------------
 Symbolic Z-matrix:
 Charge =  0 Multiplicity = 1

                         Standard orientation:
 ---------------------------------------------------------------------
 Center     Atomic      Atomic             Coordinates (Angstroms)
 Number     Number       Type             X           Y           Z
 ---------------------------------------------------------------------
      1          6           0       -1.190676    0.027678   -0.010787
      2          6           0        0.272348   -0.012981    0.047234
      3          7           0        1.456122    0.011575   -0.029101
      4          1           0       -1.453881   -0.409302    0.943753
      5          1           0       -1.555409   -0.780872   -0.761967
      6          1           0       -1.673595    1.020969   -0.196765
 ---------------------------------------------------------------------

 SCF Done:  E(RB2PLYPD3) =  -132.521113679     A.U. after   13 cycles
 E2(B2PLYPD3) =    -0.1841157246D+00 E(B2PLYPD3) =    -0.13270522940367D+03

 The electronic state is 1-A.
 Alpha  occ. eigenvalues --  -14.85133 -10.68299 -10.67327  -1.02870  -0.88689
 Alpha  occ. eigenvalues --   -0.59403  -0.54303  -0.52088  -0.44905  -0.38451
 Alpha  occ. eigenvalues --   -0.37980
 Alpha virt. eigenvalues --    0.03291   0.06347   0.07637   0.09888   0.11033
 Alpha virt. eigenvalues --    0.11402   0.14852   0.15223   0.17582   0.20204
 Alpha virt. eigenvalues --    0.20384   0.25405   0.31856   0.33132   0.34677

 Mulliken charges:
               1
     1  C   -0.098450
     2  C    0.009107
     3  N   -0.219293
     4  H    0.101539
     5  H    0.096998
     6  H    0.110100
 Sum of Mulliken charges =   0.00000

 Dipole moment (field-independent basis, Debye):
    X=             -4.1674    Y=             -0.0540    Z=              0.0724  Tot=              4.1684
 Quadrupole moment (field-independent basis, Debye-Ang):
   XX=            -21.1197   YY=            -17.6609   ZZ=            -18.1464
   XY=             -0.0849   XZ=              0.1621   YZ=             -0.0687

 Normal termination of Gaussian 09 at Wed Aug 26 22:52:06 2020.
