 Gaussian 09, Revision D.01,
 Gaussian 09:  ES64L-G09RevD.01 24-Apr-2013

 --------------------
 #p B2PLYPD3/Def2QZVP
 --------------------

 ------------
 cyanomethane
 ------------
 Symbolic Z-matrix:
 Charge =  0 Multiplicity = 1

                         Standard orientation:
 ---------------------------------------------------------------------
 Center     Atomic      Atomic             Coordinates (Angstroms)
 Number     Number       Type             X           Y           Z
 ---------------------------------------------------------------------
      1          6           0        1.183454   -0.017213   -0.007481
      2          6           0       -0.278136   -0.051085    0.032695
      3          7           0       -1.413487    0.031779   -0.017946
      4          1           0        1.540941    1.004668   -0.294734
      5          1           0        1.466182   -0.667022   -0.676960
      6          1           0        1.455376   -0.150309    0.946028
 ---------------------------------------------------------------------

 SCF Done:  E(RB2PLYPD3) =  -132.517757681     A.U. after   12 cycles
 E2(B2PLYPD3) =    -0.1787080926D+00 E(B2PLYPD3) =    -0.13269646577323D+03

 The electronic state is 1-A.
 Alpha  occ. eigenvalues --  -14.83586 -10.65532 -10.65303  -1.04649  -0.90827
 Alpha  occ. eigenvalues --   -0.59233  -0.58155  -0.53361  -0.44556  -0.39703
 Alpha  occ. eigenvalues --   -0.39179
 Alpha virt. eigenvalues --    0.03752   0.08376   0.09818   0.10193   0.11136
 Alpha virt. eigenvalues --    0.11667   0.15548   0.15603   0.16603   0.19998
 Alpha virt. eigenvalues --    0.20097   0.25401   0.33056   0.34141   0.36699

 Mulliken charges:
               1
     1  C   -0.086388
     2  C   -0.007918
     3  N   -0.200884
     4  H    0.088250
     5  H    0.105525
     6  H    0.101415
 Sum of Mulliken charges =   0.00000

 Dipole moment (field-independent basis, Debye):
    X=              4.0765    Y=             -0.0374    Z=              0.0415  Tot=              4.0768
 Quadrupole moment (field-independent basis, Debye-Ang):
   XX=            -21.0962   YY=            -17.6186   ZZ=            -17.4788
   XY=              0.2684   XZ=             -0.0998   YZ=              0.1155

 Normal termination of Gaussian 09 at Wed Aug 26 19:52:29 2020.
