 Gaussian 09, Revision D.01,
 Gaussian 09:  ES64L-G09RevD.01 24-Apr-2013

 --------------------
 #p B2PLYPD3/Def2QZVP
 --------------------

 ------------
 cyanomethane
 ------------
 Symbolic Z-matrix:
 Charge =  0 Multiplicity = 1

                         Standard orientation:
 ---------------------------------------------------------------------
 Center     Atomic      Atomic             Coordinates (Angstroms)
 Number     Number       Type             X           Y           Z
 ---------------------------------------------------------------------
      1          6           0        1.161759   -0.001313   -0.003025
      2          6           0       -0.278303   -0.010160   -0.009924
      3          7           0       -1.431140    0.002619    0.002200
      4          1           0        1.548780    0.987773   -0.288485
      5          1           0        1.633601   -0.737624   -0.658619
      6          1           0        1.534858   -0.199650    1.009393
 ---------------------------------------------------------------------

 SCF Done:  E(RB2PLYPD3) =  -132.534821123     A.U. after   12 cycles
 E2(B2PLYPD3) =    -0.1804938653D+00 E(B2PLYPD3) =    -0.13271531498866D+03

 The electronic state is 1-A.
 Alpha  occ. eigenvalues --  -14.84232 -10.67118 -10.66259  -1.04284  -0.89279
 Alpha  occ. eigenvalues --   -0.60566  -0.53538  -0.53424  -0.44909  -0.39103
 Alpha  occ. eigenvalues --   -0.39000
 Alpha virt. eigenvalues --    0.03736   0.07580   0.07703   0.10149   0.11568
 Alpha virt. eigenvalues --    0.11680   0.15561   0.16325   0.16920   0.20087
 Alpha virt. eigenvalues --    0.20100   0.25679   0.32878   0.34352   0.34808

 Mulliken charges:
               1
     1  C   -0.075440
     2  C    0.001722
     3  N   -0.204776
     4  H    0.093024
     5  H    0.092934
     6  H    0.092535
 Sum of Mulliken charges =   0.00000

 Dipole moment (field-independent basis, Debye):
    X=              4.1294    Y=              0.0017    Z=              0.0098  Tot=              4.1294
 Quadrupole moment (field-independent basis, Debye-Ang):
   XX=            -20.8140   YY=            -17.7878   ZZ=            -17.8240
   XY=             -0.0199   XZ=             -0.0122   YZ=              0.0051

 Normal termination of Gaussian 09 at Wed Aug 26 13:14:39 2020.
