 Gaussian 09, Revision D.01,
 Gaussian 09:  ES64L-G09RevD.01 24-Apr-2013

 --------------------
 #p B2PLYPD3/Def2QZVP
 --------------------

 ------------
 cyanomethane
 ------------
 Symbolic Z-matrix:
 Charge =  0 Multiplicity = 1

                         Standard orientation:
 ---------------------------------------------------------------------
 Center     Atomic      Atomic             Coordinates (Angstroms)
 Number     Number       Type             X           Y           Z
 ---------------------------------------------------------------------
      1          6           0        1.176250    0.009980    0.002178
      2          6           0       -0.270736    0.005398   -0.008630
      3          7           0       -1.431557   -0.005638    0.001986
      4          1           0        1.506567    1.021005   -0.033182
      5          1           0        1.568224   -0.573764   -0.856009
      6          1           0        1.513028   -0.500043    0.914002
 ---------------------------------------------------------------------

 SCF Done:  E(RB2PLYPD3) =  -132.533993916     A.U. after   11 cycles
 E2(B2PLYPD3) =    -0.1810126433D+00 E(B2PLYPD3) =    -0.13271500655969D+03

 The electronic state is 1-A.
 Alpha  occ. eigenvalues --  -14.84266 -10.67097 -10.66303  -1.03835  -0.89503
 Alpha  occ. eigenvalues --   -0.59471  -0.55048  -0.53407  -0.44732  -0.38903
 Alpha  occ. eigenvalues --   -0.38697
 Alpha virt. eigenvalues --    0.03747   0.07579   0.08084   0.10155   0.11278
 Alpha virt. eigenvalues --    0.11573   0.15393   0.16027   0.16221   0.20098
 Alpha virt. eigenvalues --    0.20180   0.25491   0.32703   0.34086   0.34967

 Mulliken charges:
               1
     1  C   -0.089757
     2  C   -0.001267
     3  N   -0.210291
     4  H    0.104428
     5  H    0.097310
     6  H    0.099576
 Sum of Mulliken charges =   0.00000

 Dipole moment (field-independent basis, Debye):
    X=              4.1261    Y=             -0.0019    Z=              0.0031  Tot=              4.1261
 Quadrupole moment (field-independent basis, Debye-Ang):
   XX=            -21.1518   YY=            -17.6366   ZZ=            -17.8052
   XY=             -0.0885   XZ=             -0.0172   YZ=             -0.0142

 Normal termination of Gaussian 09 at Thu Aug 27 00:08:38 2020.
