 Gaussian 09, Revision D.01,
 Gaussian 09:  ES64L-G09RevD.01 24-Apr-2013

 --------------------
 #p B2PLYPD3/Def2QZVP
 --------------------

 ------------
 cyanomethane
 ------------
 Symbolic Z-matrix:
 Charge =  0 Multiplicity = 1

                         Standard orientation:
 ---------------------------------------------------------------------
 Center     Atomic      Atomic             Coordinates (Angstroms)
 Number     Number       Type             X           Y           Z
 ---------------------------------------------------------------------
      1          6           0       -1.169887    0.010086    0.005912
      2          6           0        0.287586   -0.020104   -0.024246
      3          7           0        1.423464   -0.000307    0.006261
      4          1           0       -1.455297    1.028670   -0.258025
      5          1           0       -1.505879   -0.227590    0.981319
      6          1           0       -1.709270   -0.738821   -0.657117
 ---------------------------------------------------------------------

 SCF Done:  E(RB2PLYPD3) =  -132.532454934     A.U. after   12 cycles
 E2(B2PLYPD3) =    -0.1790960769D+00 E(B2PLYPD3) =    -0.13271155101059D+03

 The electronic state is 1-A.
 Alpha  occ. eigenvalues --  -14.83690 -10.67205 -10.65755  -1.04871  -0.89073
 Alpha  occ. eigenvalues --   -0.59792  -0.54518  -0.52624  -0.44739  -0.39546
 Alpha  occ. eigenvalues --   -0.39414
 Alpha virt. eigenvalues --    0.03739   0.07615   0.08531   0.10279   0.11652
 Alpha virt. eigenvalues --    0.11832   0.15341   0.16161   0.17015   0.19969
 Alpha virt. eigenvalues --    0.20064   0.25408   0.32465   0.34683   0.34794

 Mulliken charges:
               1
     1  C   -0.087071
     2  C   -0.002742
     3  N   -0.196726
     4  H    0.099964
     5  H    0.096812
     6  H    0.089763
 Sum of Mulliken charges =   0.00000

 Dipole moment (field-independent basis, Debye):
    X=             -4.0996    Y=              0.0001    Z=              0.0295  Tot=              4.0997
 Quadrupole moment (field-independent basis, Debye-Ang):
   XX=            -20.9131   YY=            -17.5995   ZZ=            -17.8614
   XY=              0.1759   XZ=             -0.0343   YZ=             -0.0650

 Normal termination of Gaussian 09 at Wed Aug 26 16:29:25 2020.
