 Gaussian 09, Revision D.01,
 Gaussian 09:  ES64L-G09RevD.01 24-Apr-2013

 --------------------
 #p B2PLYPD3/Def2QZVP
 --------------------

 ------------
 cyanomethane
 ------------
 Symbolic Z-matrix:
 Charge =  0 Multiplicity = 1

                         Standard orientation:
 ---------------------------------------------------------------------
 Center     Atomic      Atomic             Coordinates (Angstroms)
 Number     Number       Type             X           Y           Z
 ---------------------------------------------------------------------
      1          6           0        1.175171   -0.009753   -0.026964
      2          6           0       -0.294764   -0.051787    0.024334
      3          7           0       -1.439720    0.032274   -0.012852
      4          1           0        1.657553    1.024597   -0.318332
      5          1           0        1.589748   -0.757916   -0.610440
      6          1           0        1.548296   -0.123357    1.034514
 ---------------------------------------------------------------------

 SCF Done:  E(RB2PLYPD3) =  -132.524927877     A.U. after   12 cycles
 E2(B2PLYPD3) =    -0.1806405103D+00 E(B2PLYPD3) =    -0.13270556838732D+03

 The electronic state is 1-A.
 Alpha  occ. eigenvalues --  -14.84285 -10.67918 -10.66393  -1.04491  -0.88390
 Alpha  occ. eigenvalues --   -0.60136  -0.54415  -0.51051  -0.44980  -0.39581
 Alpha  occ. eigenvalues --   -0.38953
 Alpha virt. eigenvalues --    0.03292   0.06886   0.08341   0.10093   0.11187
 Alpha virt. eigenvalues --    0.11868   0.15426   0.15867   0.17688   0.19951
 Alpha virt. eigenvalues --    0.20213   0.25374   0.32349   0.32929   0.35059

 Mulliken charges:
               1
     1  C   -0.082764
     2  C    0.004135
     3  N   -0.200176
     4  H    0.089806
     5  H    0.102068
     6  H    0.086932
 Sum of Mulliken charges =   0.00000

 Dipole moment (field-independent basis, Debye):
    X=              4.1084    Y=             -0.0584    Z=              0.0538  Tot=              4.1092
 Quadrupole moment (field-independent basis, Debye-Ang):
   XX=            -20.7763   YY=            -17.8050   ZZ=            -17.9422
   XY=              0.2352   XZ=             -0.0370   YZ=              0.1384

 Normal termination of Gaussian 09 at Wed Aug 26 22:23:51 2020.
