 Gaussian 09, Revision D.01,
 Gaussian 09:  ES64L-G09RevD.01 24-Apr-2013

 --------------------
 #p B2PLYPD3/Def2QZVP
 --------------------

 ------------
 cyanomethane
 ------------
 Symbolic Z-matrix:
 Charge =  0 Multiplicity = 1

                         Standard orientation:
 ---------------------------------------------------------------------
 Center     Atomic      Atomic             Coordinates (Angstroms)
 Number     Number       Type             X           Y           Z
 ---------------------------------------------------------------------
      1          6           0       -1.179036    0.026585   -0.006729
      2          6           0        0.277596    0.013972    0.035419
      3          7           0        1.443205   -0.013015   -0.013328
      4          1           0       -1.507347    0.912331   -0.395125
      5          1           0       -1.631821   -0.213448    0.982589
      6          1           0       -1.554631   -0.851115   -0.666310
 ---------------------------------------------------------------------

 SCF Done:  E(RB2PLYPD3) =  -132.526838963     A.U. after   12 cycles
 E2(B2PLYPD3) =    -0.1818051058D+00 E(B2PLYPD3) =    -0.13270864406869D+03

 The electronic state is 1-A.
 Alpha  occ. eigenvalues --  -14.84620 -10.67428 -10.66708  -1.03676  -0.89151
 Alpha  occ. eigenvalues --   -0.60023  -0.55550  -0.51729  -0.44901  -0.39028
 Alpha  occ. eigenvalues --   -0.38476
 Alpha virt. eigenvalues --    0.03529   0.06948   0.08059   0.10149   0.11019
 Alpha virt. eigenvalues --    0.11681   0.15341   0.16175   0.16622   0.20030
 Alpha virt. eigenvalues --    0.20211   0.25389   0.32286   0.33094   0.35553

 Mulliken charges:
               1
     1  C   -0.083207
     2  C    0.003020
     3  N   -0.211102
     4  H    0.106759
     5  H    0.094189
     6  H    0.090341
 Sum of Mulliken charges =   0.00000

 Dipole moment (field-independent basis, Debye):
    X=             -4.1415    Y=              0.0039    Z=              0.0163  Tot=              4.1416
 Quadrupole moment (field-independent basis, Debye-Ang):
   XX=            -20.9599   YY=            -17.7445   ZZ=            -17.9232
   XY=              0.1678   XZ=              0.0007   YZ=             -0.1250

 Normal termination of Gaussian 09 at Wed Aug 26 13:29:48 2020.
