 Gaussian 09, Revision D.01,
 Gaussian 09:  ES64L-G09RevD.01 24-Apr-2013

 --------------------
 #p B2PLYPD3/Def2QZVP
 --------------------

 ------------
 cyanomethane
 ------------
 Symbolic Z-matrix:
 Charge =  0 Multiplicity = 1

                         Standard orientation:
 ---------------------------------------------------------------------
 Center     Atomic      Atomic             Coordinates (Angstroms)
 Number     Number       Type             X           Y           Z
 ---------------------------------------------------------------------
      1          6           0       -1.177990    0.013422    0.002622
      2          6           0        0.273096   -0.018362    0.004828
      3          7           0        1.435001    0.007863   -0.002431
      4          1           0       -1.543680   -0.060025    1.011739
      5          1           0       -1.539558   -0.889665   -0.563358
      6          1           0       -1.532406    0.924285   -0.476061
 ---------------------------------------------------------------------

 SCF Done:  E(RB2PLYPD3) =  -132.533763354     A.U. after   11 cycles
 E2(B2PLYPD3) =    -0.1812188329D+00 E(B2PLYPD3) =    -0.13271498218670D+03

 The electronic state is 1-A.
 Alpha  occ. eigenvalues --  -14.84349 -10.67327 -10.66405  -1.03793  -0.89257
 Alpha  occ. eigenvalues --   -0.59528  -0.54518  -0.53412  -0.44768  -0.38889
 Alpha  occ. eigenvalues --   -0.38702
 Alpha virt. eigenvalues --    0.03705   0.07580   0.07858   0.10138   0.11328
 Alpha virt. eigenvalues --    0.11494   0.15373   0.15890   0.16437   0.20115
 Alpha virt. eigenvalues --    0.20152   0.25455   0.32550   0.34017   0.34876

 Mulliken charges:
               1
     1  C   -0.090439
     2  C   -0.000061
     3  N   -0.210294
     4  H    0.100710
     5  H    0.096834
     6  H    0.103250
 Sum of Mulliken charges =   0.00000

 Dipole moment (field-independent basis, Debye):
    X=             -4.1276    Y=             -0.0136    Z=              0.0129  Tot=              4.1276
 Quadrupole moment (field-independent basis, Debye-Ang):
   XX=            -21.1330   YY=            -17.7070   ZZ=            -17.7882
   XY=             -0.0250   XZ=             -0.0166   YZ=             -0.0408

 Normal termination of Gaussian 09 at Wed Aug 26 21:19:30 2020.
