 Gaussian 09, Revision D.01,
 Gaussian 09:  ES64L-G09RevD.01 24-Apr-2013

 --------------------
 #p B2PLYPD3/Def2QZVP
 --------------------

 ------------
 cyanomethane
 ------------
 Symbolic Z-matrix:
 Charge =  0 Multiplicity = 1

                         Standard orientation:
 ---------------------------------------------------------------------
 Center     Atomic      Atomic             Coordinates (Angstroms)
 Number     Number       Type             X           Y           Z
 ---------------------------------------------------------------------
      1          6           0        1.178461   -0.004827   -0.002550
      2          6           0       -0.278440    0.015010   -0.014165
      3          7           0       -1.428279   -0.003844    0.007589
      4          1           0        1.493392   -0.849701   -0.542269
      5          1           0        1.527837   -0.081368    1.009983
      6          1           0        1.576599    0.896884   -0.420545
 ---------------------------------------------------------------------

 SCF Done:  E(RB2PLYPD3) =  -132.535125629     A.U. after   11 cycles
 E2(B2PLYPD3) =    -0.1797660758D+00 E(B2PLYPD3) =    -0.13271489170439D+03

 The electronic state is 1-A.
 Alpha  occ. eigenvalues --  -14.83997 -10.66360 -10.66034  -1.04258  -0.89818
 Alpha  occ. eigenvalues --   -0.59738  -0.55090  -0.54103  -0.44712  -0.39242
 Alpha  occ. eigenvalues --   -0.39132
 Alpha virt. eigenvalues --    0.03884   0.08184   0.08490   0.10213   0.11360
 Alpha virt. eigenvalues --    0.11531   0.15453   0.16208   0.16387   0.20053
 Alpha virt. eigenvalues --    0.20115   0.25362   0.32953   0.34777   0.35272

 Mulliken charges:
               1
     1  C   -0.078831
     2  C   -0.003854
     3  N   -0.205161
     4  H    0.098608
     5  H    0.094277
     6  H    0.094961
 Sum of Mulliken charges =   0.00000

 Dipole moment (field-independent basis, Debye):
    X=              4.1253    Y=              0.0000    Z=             -0.0013  Tot=              4.1253
 Quadrupole moment (field-independent basis, Debye-Ang):
   XX=            -20.9878   YY=            -17.6405   ZZ=            -17.7336
   XY=              0.0287   XZ=              0.0660   YZ=              0.0231

 Normal termination of Gaussian 09 at Thu Aug 27 00:12:16 2020.
