 Gaussian 09, Revision D.01,
 Gaussian 09:  ES64L-G09RevD.01 24-Apr-2013

 --------------------
 #p B2PLYPD3/Def2QZVP
 --------------------

 ------------
 cyanomethane
 ------------
 Symbolic Z-matrix:
 Charge =  0 Multiplicity = 1

                         Standard orientation:
 ---------------------------------------------------------------------
 Center     Atomic      Atomic             Coordinates (Angstroms)
 Number     Number       Type             X           Y           Z
 ---------------------------------------------------------------------
      1          6           0        1.165486   -0.001644   -0.001585
      2          6           0       -0.280875   -0.014455    0.000366
      3          7           0       -1.425403    0.011411   -0.005089
      4          1           0        1.625306    0.981802   -0.275927
      5          1           0        1.570147   -0.749344   -0.637403
      6          1           0        1.474703   -0.215740    0.956269
 ---------------------------------------------------------------------

 SCF Done:  E(RB2PLYPD3) =  -132.532050918     A.U. after   12 cycles
 E2(B2PLYPD3) =    -0.1794708910D+00 E(B2PLYPD3) =    -0.13271152180852D+03

 The electronic state is 1-A.
 Alpha  occ. eigenvalues --  -14.83949 -10.66314 -10.65959  -1.04572  -0.89880
 Alpha  occ. eigenvalues --   -0.60455  -0.54772  -0.53508  -0.44821  -0.39366
 Alpha  occ. eigenvalues --   -0.39272
 Alpha virt. eigenvalues --    0.03803   0.07732   0.08694   0.10194   0.11545
 Alpha virt. eigenvalues --    0.11655   0.15612   0.15986   0.17247   0.20054
 Alpha virt. eigenvalues --    0.20105   0.25591   0.32928   0.34726   0.35289

 Mulliken charges:
               1
     1  C   -0.072225
     2  C   -0.001192
     3  N   -0.201692
     4  H    0.089737
     5  H    0.091638
     6  H    0.093735
 Sum of Mulliken charges =   0.00000

 Dipole moment (field-independent basis, Debye):
    X=              4.1220    Y=             -0.0417    Z=              0.0429  Tot=              4.1224
 Quadrupole moment (field-independent basis, Debye-Ang):
   XX=            -20.7868   YY=            -17.6617   ZZ=            -17.7975
   XY=              0.0712   XZ=             -0.0338   YZ=              0.0155

 Normal termination of Gaussian 09 at Wed Aug 26 15:30:42 2020.
