 Gaussian 09, Revision D.01,
 Gaussian 09:  ES64L-G09RevD.01 24-Apr-2013

 --------------------
 #p B2PLYPD3/Def2QZVP
 --------------------

 ------------
 cyanomethane
 ------------
 Symbolic Z-matrix:
 Charge =  0 Multiplicity = 1

                         Standard orientation:
 ---------------------------------------------------------------------
 Center     Atomic      Atomic             Coordinates (Angstroms)
 Number     Number       Type             X           Y           Z
 ---------------------------------------------------------------------
      1          6           0        1.159775    0.002688   -0.007307
      2          6           0       -0.283044    0.016526   -0.022063
      3          7           0       -1.425331   -0.014286    0.019728
      4          1           0        1.688084   -0.358129    0.974038
      5          1           0        1.486552    1.029701   -0.168782
      6          1           0        1.542292   -0.686849   -0.767133
 ---------------------------------------------------------------------

 SCF Done:  E(RB2PLYPD3) =  -132.529196865     A.U. after   12 cycles
 E2(B2PLYPD3) =    -0.1801041744D+00 E(B2PLYPD3) =    -0.13270930103904D+03

 The electronic state is 1-A.
 Alpha  occ. eigenvalues --  -14.83974 -10.67749 -10.65975  -1.04672  -0.88837
 Alpha  occ. eigenvalues --   -0.59932  -0.54572  -0.51583  -0.44869  -0.39380
 Alpha  occ. eigenvalues --   -0.39014
 Alpha virt. eigenvalues --    0.03489   0.06882   0.08238   0.10138   0.11544
 Alpha virt. eigenvalues --    0.11980   0.15486   0.16076   0.17204   0.19947
 Alpha virt. eigenvalues --    0.20184   0.25680   0.32524   0.33722   0.34782

 Mulliken charges:
               1
     1  C   -0.088416
     2  C    0.000372
     3  N   -0.198915
     4  H    0.088668
     5  H    0.099997
     6  H    0.098293
 Sum of Mulliken charges =   0.00000

 Dipole moment (field-independent basis, Debye):
    X=              4.0923    Y=              0.0201    Z=             -0.0427  Tot=              4.0926
 Quadrupole moment (field-independent basis, Debye-Ang):
   XX=            -20.9083   YY=            -17.6491   ZZ=            -17.9382
   XY=             -0.1826   XZ=              0.2148   YZ=              0.0542

 Normal termination of Gaussian 09 at Wed Aug 26 11:34:21 2020.
