 Gaussian 09, Revision D.01,
 Gaussian 09:  ES64L-G09RevD.01 24-Apr-2013

 --------------------
 #p B2PLYPD3/Def2QZVP
 --------------------

 ------------
 cyanomethane
 ------------
 Symbolic Z-matrix:
 Charge =  0 Multiplicity = 1

                         Standard orientation:
 ---------------------------------------------------------------------
 Center     Atomic      Atomic             Coordinates (Angstroms)
 Number     Number       Type             X           Y           Z
 ---------------------------------------------------------------------
      1          6           0       -1.181599   -0.006360    0.005368
      2          6           0        0.279539    0.016927    0.002142
      3          7           0        1.427614   -0.008293   -0.001580
      4          1           0       -1.528180   -0.204674    1.011087
      5          1           0       -1.526869   -0.786582   -0.698002
      6          1           0       -1.525893    0.985906   -0.347089
 ---------------------------------------------------------------------

 SCF Done:  E(RB2PLYPD3) =  -132.535201969     A.U. after   11 cycles
 E2(B2PLYPD3) =    -0.1800260403D+00 E(B2PLYPD3) =    -0.13271522800879D+03

 The electronic state is 1-A.
 Alpha  occ. eigenvalues --  -14.83901 -10.67450 -10.65957  -1.04282  -0.89025
 Alpha  occ. eigenvalues --   -0.58898  -0.54356  -0.53648  -0.44643  -0.39193
 Alpha  occ. eigenvalues --   -0.39071
 Alpha virt. eigenvalues --    0.03712   0.07951   0.08170   0.10188   0.11461
 Alpha virt. eigenvalues --    0.11589   0.15307   0.15917   0.16313   0.20063
 Alpha virt. eigenvalues --    0.20088   0.25261   0.32675   0.34124   0.34698

 Mulliken charges:
               1
     1  C   -0.098110
     2  C   -0.003955
     3  N   -0.203671
     4  H    0.103824
     5  H    0.101712
     6  H    0.100199
 Sum of Mulliken charges =   0.00000

 Dipole moment (field-independent basis, Debye):
    X=             -4.1015    Y=              0.0125    Z=              0.0004  Tot=              4.1015
 Quadrupole moment (field-independent basis, Debye-Ang):
   XX=            -21.2282   YY=            -17.7044   ZZ=            -17.6561
   XY=              0.0463   XZ=              0.0128   YZ=             -0.0065

 Normal termination of Gaussian 09 at Thu Aug 27 01:09:14 2020.
