 Gaussian 09, Revision D.01,
 Gaussian 09:  ES64L-G09RevD.01 24-Apr-2013

 --------------------
 #p B2PLYPD3/Def2QZVP
 --------------------

 ------------
 cyanomethane
 ------------
 Symbolic Z-matrix:
 Charge =  0 Multiplicity = 1

                         Standard orientation:
 ---------------------------------------------------------------------
 Center     Atomic      Atomic             Coordinates (Angstroms)
 Number     Number       Type             X           Y           Z
 ---------------------------------------------------------------------
      1          6           0       -1.169436   -0.000443    0.008337
      2          6           0        0.275721    0.020718   -0.009240
      3          7           0        1.433638   -0.012359    0.004820
      4          1           0       -1.536448    1.007820   -0.044693
      5          1           0       -1.578403   -0.489986    0.884054
      6          1           0       -1.558322   -0.552973   -0.867683
 ---------------------------------------------------------------------

 SCF Done:  E(RB2PLYPD3) =  -132.534618241     A.U. after   11 cycles
 E2(B2PLYPD3) =    -0.1808268900D+00 E(B2PLYPD3) =    -0.13271544513083D+03

 The electronic state is 1-A.
 Alpha  occ. eigenvalues --  -14.84337 -10.66949 -10.66365  -1.04018  -0.89442
 Alpha  occ. eigenvalues --   -0.60252  -0.54365  -0.53352  -0.44866  -0.39004
 Alpha  occ. eigenvalues --   -0.38869
 Alpha virt. eigenvalues --    0.03752   0.07520   0.07968   0.10126   0.11383
 Alpha virt. eigenvalues --    0.11591   0.15520   0.16133   0.16750   0.20074
 Alpha virt. eigenvalues --    0.20157   0.25601   0.32844   0.34357   0.34955

 Mulliken charges:
               1
     1  C   -0.077611
     2  C    0.000655
     3  N   -0.207877
     4  H    0.096359
     5  H    0.095919
     6  H    0.092556
 Sum of Mulliken charges =   0.00000

 Dipole moment (field-independent basis, Debye):
    X=             -4.1329    Y=              0.0152    Z=             -0.0100  Tot=              4.1330
 Quadrupole moment (field-independent basis, Debye-Ang):
   XX=            -20.9126   YY=            -17.7398   ZZ=            -17.8191
   XY=              0.1018   XZ=             -0.0309   YZ=             -0.0225

 Normal termination of Gaussian 09 at Thu Aug 27 00:02:22 2020.
