 Gaussian 09, Revision D.01,
 Gaussian 09:  ES64L-G09RevD.01 24-Apr-2013

 --------------------
 #p B2PLYPD3/Def2QZVP
 --------------------

 ------------
 cyanomethane
 ------------
 Symbolic Z-matrix:
 Charge =  0 Multiplicity = 1

                         Standard orientation:
 ---------------------------------------------------------------------
 Center     Atomic      Atomic             Coordinates (Angstroms)
 Number     Number       Type             X           Y           Z
 ---------------------------------------------------------------------
      1          6           0       -1.153104    0.010481    0.012159
      2          6           0        0.260484    0.042373   -0.022754
      3          7           0        1.428891   -0.029348   -0.001013
      4          1           0       -1.510870    0.972777   -0.223350
      5          1           0       -1.416119   -0.313753    0.981875
      6          1           0       -1.719533   -0.770709   -0.687870
 ---------------------------------------------------------------------

 SCF Done:  E(RB2PLYPD3) =  -132.521799291     A.U. after   12 cycles
 E2(B2PLYPD3) =    -0.1823019792D+00 E(B2PLYPD3) =    -0.13270410127035D+03

 The electronic state is 1-A.
 Alpha  occ. eigenvalues --  -14.84640 -10.66987 -10.66577  -1.03657  -0.90062
 Alpha  occ. eigenvalues --   -0.60453  -0.56069  -0.51811  -0.44939  -0.38653
 Alpha  occ. eigenvalues --   -0.38182
 Alpha virt. eigenvalues --    0.03387   0.06346   0.08104   0.10049   0.11197
 Alpha virt. eigenvalues --    0.11902   0.15587   0.15683   0.17118   0.20060
 Alpha virt. eigenvalues --    0.20364   0.26173   0.31981   0.34008   0.35209

 Mulliken charges:
               1
     1  C   -0.083064
     2  C    0.004271
     3  N   -0.214026
     4  H    0.102312
     5  H    0.103128
     6  H    0.087378
 Sum of Mulliken charges =   0.00000

 Dipole moment (field-independent basis, Debye):
    X=             -4.1293    Y=              0.0399    Z=              0.0526  Tot=              4.1298
 Quadrupole moment (field-independent basis, Debye-Ang):
   XX=            -20.9367   YY=            -17.7009   ZZ=            -17.9326
   XY=              0.2608   XZ=              0.0961   YZ=             -0.1331

 Normal termination of Gaussian 09 at Wed Aug 26 23:19:07 2020.
