 Gaussian 09, Revision D.01,
 Gaussian 09:  ES64L-G09RevD.01 24-Apr-2013

 --------------------
 #p B2PLYPD3/Def2QZVP
 --------------------

 ------------
 cyanomethane
 ------------
 Symbolic Z-matrix:
 Charge =  0 Multiplicity = 1

                         Standard orientation:
 ---------------------------------------------------------------------
 Center     Atomic      Atomic             Coordinates (Angstroms)
 Number     Number       Type             X           Y           Z
 ---------------------------------------------------------------------
      1          6           0        1.164657   -0.013890   -0.008727
      2          6           0       -0.277290   -0.016554    0.000160
      3          7           0       -1.429519    0.014161    0.006375
      4          1           0        1.607975    1.063428   -0.061007
      5          1           0        1.468994   -0.545440   -0.837738
      6          1           0        1.605465   -0.434451    0.905517
 ---------------------------------------------------------------------

 SCF Done:  E(RB2PLYPD3) =  -132.529087387     A.U. after   12 cycles
 E2(B2PLYPD3) =    -0.1805230360D+00 E(B2PLYPD3) =    -0.13270961042292D+03

 The electronic state is 1-A.
 Alpha  occ. eigenvalues --  -14.84188 -10.67170 -10.66194  -1.04277  -0.89405
 Alpha  occ. eigenvalues --   -0.60143  -0.55219  -0.52100  -0.44863  -0.39219
 Alpha  occ. eigenvalues --   -0.38840
 Alpha virt. eigenvalues --    0.03590   0.07044   0.08366   0.10162   0.11351
 Alpha virt. eigenvalues --    0.11834   0.15499   0.16233   0.16773   0.20010
 Alpha virt. eigenvalues --    0.20170   0.25632   0.32428   0.33725   0.35335

 Mulliken charges:
               1
     1  C   -0.082433
     2  C    0.000254
     3  N   -0.204737
     4  H    0.089387
     5  H    0.103220
     6  H    0.094310
 Sum of Mulliken charges =   0.00000

 Dipole moment (field-independent basis, Debye):
    X=              4.1150    Y=             -0.0380    Z=             -0.0086  Tot=              4.1152
 Quadrupole moment (field-independent basis, Debye-Ang):
   XX=            -20.9184   YY=            -17.8018   ZZ=            -17.7519
   XY=              0.1170   XZ=              0.1357   YZ=              0.0746

 Normal termination of Gaussian 09 at Wed Aug 26 14:12:11 2020.
