 Gaussian 09, Revision D.01,
 Gaussian 09:  ES64L-G09RevD.01 24-Apr-2013

 --------------------
 #p B2PLYPD3/Def2QZVP
 --------------------

 ------------
 cyanomethane
 ------------
 Symbolic Z-matrix:
 Charge =  0 Multiplicity = 1

                         Standard orientation:
 ---------------------------------------------------------------------
 Center     Atomic      Atomic             Coordinates (Angstroms)
 Number     Number       Type             X           Y           Z
 ---------------------------------------------------------------------
      1          6           0        1.177065    0.006487   -0.008786
      2          6           0       -0.279440   -0.015259   -0.010740
      3          7           0       -1.440066    0.009738    0.008457
      4          1           0        1.523913   -0.823467   -0.623766
      5          1           0        1.584727   -0.159340    1.042309
      6          1           0        1.586068    0.967275   -0.360586
 ---------------------------------------------------------------------

 SCF Done:  E(RB2PLYPD3) =  -132.532587667     A.U. after   12 cycles
 E2(B2PLYPD3) =    -0.1813623167D+00 E(B2PLYPD3) =    -0.13271394998341D+03

 The electronic state is 1-A.
 Alpha  occ. eigenvalues --  -14.84435 -10.67767 -10.66519  -1.03889  -0.88787
 Alpha  occ. eigenvalues --   -0.59685  -0.54163  -0.52586  -0.44862  -0.38977
 Alpha  occ. eigenvalues --   -0.38764
 Alpha virt. eigenvalues --    0.03601   0.07180   0.07817   0.10136   0.11304
 Alpha virt. eigenvalues --    0.11597   0.15351   0.16028   0.16713   0.20059
 Alpha virt. eigenvalues --    0.20164   0.25374   0.32436   0.33816   0.34759

 Mulliken charges:
               1
     1  C   -0.088382
     2  C    0.001423
     3  N   -0.208146
     4  H    0.100565
     5  H    0.093914
     6  H    0.100626
 Sum of Mulliken charges =   0.00000

 Dipole moment (field-independent basis, Debye):
    X=              4.1307    Y=             -0.0196    Z=             -0.0095  Tot=              4.1308
 Quadrupole moment (field-independent basis, Debye-Ang):
   XX=            -21.0178   YY=            -17.7404   ZZ=            -17.8864
   XY=              0.0798   XZ=              0.0917   YZ=              0.0207

 Normal termination of Gaussian 09 at Wed Aug 26 23:58:10 2020.
