 Gaussian 09, Revision D.01,
 Gaussian 09:  ES64L-G09RevD.01 24-Apr-2013

 --------------------
 #p B2PLYPD3/Def2QZVP
 --------------------

 ------------
 cyanomethane
 ------------
 Symbolic Z-matrix:
 Charge =  0 Multiplicity = 1

                         Standard orientation:
 ---------------------------------------------------------------------
 Center     Atomic      Atomic             Coordinates (Angstroms)
 Number     Number       Type             X           Y           Z
 ---------------------------------------------------------------------
      1          6           0        1.176477   -0.004571   -0.001764
      2          6           0       -0.278408    0.008632   -0.007456
      3          7           0       -1.426676   -0.000483    0.002708
      4          1           0        1.511595   -0.735812   -0.695800
      5          1           0        1.502328   -0.262576    0.989735
      6          1           0        1.584394    0.977403   -0.257570
 ---------------------------------------------------------------------

 SCF Done:  E(RB2PLYPD3) =  -132.535768520     A.U. after   11 cycles
 E2(B2PLYPD3) =    -0.1797455371D+00 E(B2PLYPD3) =    -0.13271551405745D+03

 The electronic state is 1-A.
 Alpha  occ. eigenvalues --  -14.83934 -10.66702 -10.65968  -1.04328  -0.89584
 Alpha  occ. eigenvalues --   -0.59559  -0.54740  -0.53979  -0.44698  -0.39229
 Alpha  occ. eigenvalues --   -0.39148
 Alpha virt. eigenvalues --    0.03840   0.08059   0.08402   0.10207   0.11457
 Alpha virt. eigenvalues --    0.11565   0.15441   0.16095   0.16454   0.20063
 Alpha virt. eigenvalues --    0.20097   0.25384   0.32886   0.34664   0.35006

 Mulliken charges:
               1
     1  C   -0.084614
     2  C   -0.003962
     3  N   -0.204023
     4  H    0.099392
     5  H    0.097566
     6  H    0.095641
 Sum of Mulliken charges =   0.00000

 Dipole moment (field-independent basis, Debye):
    X=              4.1165    Y=             -0.0078    Z=              0.0044  Tot=              4.1165
 Quadrupole moment (field-independent basis, Debye-Ang):
   XX=            -21.0450   YY=            -17.6726   ZZ=            -17.6996
   XY=              0.0406   XZ=              0.0113   YZ=              0.0235

 Normal termination of Gaussian 09 at Thu Aug 27 00:11:26 2020.
