 Gaussian 09, Revision D.01,
 Gaussian 09:  ES64L-G09RevD.01 24-Apr-2013

 --------------------
 #p B2PLYPD3/Def2QZVP
 --------------------

 ------------
 cyanomethane
 ------------
 Symbolic Z-matrix:
 Charge =  0 Multiplicity = 1

                         Standard orientation:
 ---------------------------------------------------------------------
 Center     Atomic      Atomic             Coordinates (Angstroms)
 Number     Number       Type             X           Y           Z
 ---------------------------------------------------------------------
      1          6           0        1.159090    0.021808   -0.005862
      2          6           0       -0.274756   -0.065606    0.037151
      3          7           0       -1.453736    0.039001   -0.015944
      4          1           0        1.520361   -0.710308   -0.714263
      5          1           0        1.638192   -0.255128    0.906490
      6          1           0        1.711589    0.955213   -0.268351
 ---------------------------------------------------------------------

 SCF Done:  E(RB2PLYPD3) =  -132.522277017     A.U. after   13 cycles
 E2(B2PLYPD3) =    -0.1837787801D+00 E(B2PLYPD3) =    -0.13270605579746D+03

 The electronic state is 1-A.
 Alpha  occ. eigenvalues --  -14.85435 -10.67495 -10.66853  -1.03257  -0.89525
 Alpha  occ. eigenvalues --   -0.62190  -0.53481  -0.52373  -0.45327  -0.38452
 Alpha  occ. eigenvalues --   -0.38406
 Alpha virt. eigenvalues --    0.03323   0.06197   0.07408   0.09794   0.11247
 Alpha virt. eigenvalues --    0.11648   0.15574   0.16016   0.17858   0.20145
 Alpha virt. eigenvalues --    0.20788   0.26184   0.32788   0.34191   0.34696

 Mulliken charges:
               1
     1  C   -0.054713
     2  C    0.016085
     3  N   -0.215958
     4  H    0.084602
     5  H    0.082250
     6  H    0.087734
 Sum of Mulliken charges =   0.00000

 Dipole moment (field-independent basis, Debye):
    X=              4.1787    Y=             -0.0830    Z=              0.0255  Tot=              4.1796
 Quadrupole moment (field-independent basis, Debye-Ang):
   XX=            -20.3650   YY=            -18.0129   ZZ=            -18.0890
   XY=              0.2316   XZ=             -0.0188   YZ=              0.0394

 Normal termination of Gaussian 09 at Wed Aug 26 23:52:38 2020.
