 Gaussian 09, Revision D.01,
 Gaussian 09:  ES64L-G09RevD.01 24-Apr-2013

 --------------------
 #p B2PLYPD3/Def2QZVP
 --------------------

 ------------
 cyanomethane
 ------------
 Symbolic Z-matrix:
 Charge =  0 Multiplicity = 1

                         Standard orientation:
 ---------------------------------------------------------------------
 Center     Atomic      Atomic             Coordinates (Angstroms)
 Number     Number       Type             X           Y           Z
 ---------------------------------------------------------------------
      1          6           0        1.173497   -0.007951   -0.010304
      2          6           0       -0.274507    0.010404   -0.011984
      3          7           0       -1.430291   -0.004822    0.009365
      4          1           0        1.567684   -0.020018    1.004567
      5          1           0        1.523304    0.896576   -0.445979
      6          1           0        1.527114   -0.857520   -0.490410
 ---------------------------------------------------------------------

 SCF Done:  E(RB2PLYPD3) =  -132.533367088     A.U. after   11 cycles
 E2(B2PLYPD3) =    -0.1802904782D+00 E(B2PLYPD3) =    -0.13271365756661D+03

 The electronic state is 1-A.
 Alpha  occ. eigenvalues --  -14.84195 -10.66247 -10.66189  -1.04069  -0.90018
 Alpha  occ. eigenvalues --   -0.60219  -0.55642  -0.53506  -0.44785  -0.39158
 Alpha  occ. eigenvalues --   -0.38890
 Alpha virt. eigenvalues --    0.03873   0.07894   0.08419   0.10168   0.11240
 Alpha virt. eigenvalues --    0.11613   0.15519   0.16192   0.16555   0.20052
 Alpha virt. eigenvalues --    0.20175   0.25518   0.32987   0.34471   0.35566

 Mulliken charges:
               1
     1  C   -0.072717
     2  C   -0.001453
     3  N   -0.208011
     4  H    0.088752
     5  H    0.095287
     6  H    0.098141
 Sum of Mulliken charges =   0.00000

 Dipole moment (field-independent basis, Debye):
    X=              4.1368    Y=              0.0106    Z=              0.0027  Tot=              4.1368
 Quadrupole moment (field-independent basis, Debye-Ang):
   XX=            -20.9181   YY=            -17.6026   ZZ=            -17.8364
   XY=             -0.0202   XZ=              0.1297   YZ=              0.0261

 Normal termination of Gaussian 09 at Thu Aug 27 00:04:56 2020.
