 Gaussian 09, Revision D.01,
 Gaussian 09:  ES64L-G09RevD.01 24-Apr-2013

 --------------------
 #p B2PLYPD3/Def2QZVP
 --------------------

 ------------
 cyanomethane
 ------------
 Symbolic Z-matrix:
 Charge =  0 Multiplicity = 1

                         Standard orientation:
 ---------------------------------------------------------------------
 Center     Atomic      Atomic             Coordinates (Angstroms)
 Number     Number       Type             X           Y           Z
 ---------------------------------------------------------------------
      1          6           0        1.154051   -0.015599   -0.010803
      2          6           0       -0.290692   -0.053757    0.047848
      3          7           0       -1.421800    0.029579   -0.031465
      4          1           0        1.643788    0.821794   -0.542062
      5          1           0        1.649191   -0.799706   -0.370338
      6          1           0        1.479470    0.186995    0.910388
 ---------------------------------------------------------------------

 SCF Done:  E(RB2PLYPD3) =  -132.515766051     A.U. after   12 cycles
 E2(B2PLYPD3) =    -0.1788901149D+00 E(B2PLYPD3) =    -0.13269465616603D+03

 The electronic state is 1-A.
 Alpha  occ. eigenvalues --  -14.83969 -10.65971 -10.64998  -1.05079  -0.90718
 Alpha  occ. eigenvalues --   -0.62365  -0.56044  -0.52129  -0.45044  -0.39966
 Alpha  occ. eigenvalues --   -0.39349
 Alpha virt. eigenvalues --    0.03621   0.07863   0.09249   0.10057   0.11305
 Alpha virt. eigenvalues --    0.11995   0.15815   0.16296   0.18175   0.19893
 Alpha virt. eigenvalues --    0.20443   0.25916   0.33502   0.34417   0.36353

 Mulliken charges:
               1
     1  C   -0.048861
     2  C    0.011301
     3  N   -0.196571
     4  H    0.069163
     5  H    0.083006
     6  H    0.081961
 Sum of Mulliken charges =   0.00000

 Dipole moment (field-independent basis, Debye):
    X=              4.1171    Y=             -0.0209    Z=              0.0973  Tot=              4.1184
 Quadrupole moment (field-independent basis, Debye-Ang):
   XX=            -20.2534   YY=            -17.7594   ZZ=            -17.8360
   XY=              0.2404   XZ=             -0.2036   YZ=              0.1447

 Normal termination of Gaussian 09 at Wed Aug 26 18:44:16 2020.
