 Gaussian 09, Revision D.01,
 Gaussian 09:  ES64L-G09RevD.01 24-Apr-2013

 --------------------
 #p B2PLYPD3/Def2QZVP
 --------------------

 ------------
 cyanomethane
 ------------
 Symbolic Z-matrix:
 Charge =  0 Multiplicity = 1

                         Standard orientation:
 ---------------------------------------------------------------------
 Center     Atomic      Atomic             Coordinates (Angstroms)
 Number     Number       Type             X           Y           Z
 ---------------------------------------------------------------------
      1          6           0       -1.185449    0.007955    0.002029
      2          6           0        0.284623   -0.004409   -0.022806
      3          7           0        1.435102    0.002120    0.011857
      4          1           0       -1.546979   -0.108565    1.014547
      5          1           0       -1.539569   -0.856391   -0.567387
      6          1           0       -1.554207    0.928840   -0.405493
 ---------------------------------------------------------------------

 SCF Done:  E(RB2PLYPD3) =  -132.535547540     A.U. after   11 cycles
 E2(B2PLYPD3) =    -0.1800778073D+00 E(B2PLYPD3) =    -0.13271562534707D+03

 The electronic state is 1-A.
 Alpha  occ. eigenvalues --  -14.84082 -10.67046 -10.66169  -1.04213  -0.89151
 Alpha  occ. eigenvalues --   -0.59443  -0.54550  -0.53553  -0.44734  -0.39278
 Alpha  occ. eigenvalues --   -0.39125
 Alpha virt. eigenvalues --    0.03780   0.08030   0.08263   0.10200   0.11302
 Alpha virt. eigenvalues --    0.11527   0.15331   0.16099   0.16544   0.20030
 Alpha virt. eigenvalues --    0.20105   0.25134   0.32684   0.34453   0.35059

 Mulliken charges:
               1
     1  C   -0.084604
     2  C   -0.003205
     3  N   -0.204411
     4  H    0.096216
     5  H    0.096170
     6  H    0.099833
 Sum of Mulliken charges =   0.00000

 Dipole moment (field-independent basis, Debye):
    X=             -4.1264    Y=             -0.0106    Z=             -0.0035  Tot=              4.1264
 Quadrupole moment (field-independent basis, Debye-Ang):
   XX=            -21.0197   YY=            -17.6522   ZZ=            -17.8075
   XY=             -0.0032   XZ=             -0.1021   YZ=             -0.0227

 Normal termination of Gaussian 09 at Wed Aug 26 19:13:43 2020.
