 Gaussian 09, Revision D.01,
 Gaussian 09:  ES64L-G09RevD.01 24-Apr-2013

 --------------------
 #p B2PLYPD3/Def2QZVP
 --------------------

 ------------
 cyanomethane
 ------------
 Symbolic Z-matrix:
 Charge =  0 Multiplicity = 1

                         Standard orientation:
 ---------------------------------------------------------------------
 Center     Atomic      Atomic             Coordinates (Angstroms)
 Number     Number       Type             X           Y           Z
 ---------------------------------------------------------------------
      1          6           0       -1.179692    0.000962    0.000915
      2          6           0        0.280405    0.012496   -0.001124
      3          7           0        1.433863   -0.001919   -0.000278
      4          1           0       -1.515877   -0.359216    0.941916
      5          1           0       -1.513216   -0.695783   -0.751770
      6          1           0       -1.612222    0.987681   -0.186944
 ---------------------------------------------------------------------

 SCF Done:  E(RB2PLYPD3) =  -132.535264196     A.U. after   12 cycles
 E2(B2PLYPD3) =    -0.1802324041D+00 E(B2PLYPD3) =    -0.13271549660052D+03

 The electronic state is 1-A.
 Alpha  occ. eigenvalues --  -14.84148 -10.66802 -10.66222  -1.04143  -0.89453
 Alpha  occ. eigenvalues --   -0.59770  -0.54236  -0.54090  -0.44766  -0.39160
 Alpha  occ. eigenvalues --   -0.39071
 Alpha virt. eigenvalues --    0.03817   0.07920   0.08266   0.10207   0.11374
 Alpha virt. eigenvalues --    0.11502   0.15409   0.16027   0.16691   0.20069
 Alpha virt. eigenvalues --    0.20117   0.25291   0.32735   0.34690   0.35007

 Mulliken charges:
               1
     1  C   -0.080941
     2  C   -0.002029
     3  N   -0.206076
     4  H    0.096599
     5  H    0.096242
     6  H    0.096205
 Sum of Mulliken charges =   0.00000

 Dipole moment (field-independent basis, Debye):
    X=             -4.1337    Y=             -0.0198    Z=              0.0095  Tot=              4.1337
 Quadrupole moment (field-independent basis, Debye-Ang):
   XX=            -20.9652   YY=            -17.6783   ZZ=            -17.7964
   XY=             -0.0180   XZ=             -0.0068   YZ=             -0.0057

 Normal termination of Gaussian 09 at Wed Aug 26 12:12:30 2020.
