 Gaussian 09, Revision D.01,
 Gaussian 09:  ES64L-G09RevD.01 24-Apr-2013

 --------------------
 #p B2PLYPD3/Def2QZVP
 --------------------

 ------------
 cyanomethane
 ------------
 Symbolic Z-matrix:
 Charge =  0 Multiplicity = 1

                         Standard orientation:
 ---------------------------------------------------------------------
 Center     Atomic      Atomic             Coordinates (Angstroms)
 Number     Number       Type             X           Y           Z
 ---------------------------------------------------------------------
      1          6           0       -1.172055    0.004228   -0.003980
      2          6           0        0.273579    0.046038   -0.005878
      3          7           0        1.443135   -0.025606   -0.000347
      4          1           0       -1.559818    1.031864   -0.022529
      5          1           0       -1.529854   -0.536369    0.943514
      6          1           0       -1.621422   -0.617846   -0.859408
 ---------------------------------------------------------------------

 SCF Done:  E(RB2PLYPD3) =  -132.527415016     A.U. after   12 cycles
 E2(B2PLYPD3) =    -0.1826953607D+00 E(B2PLYPD3) =    -0.13271011037633D+03

 The electronic state is 1-A.
 Alpha  occ. eigenvalues --  -14.84768 -10.68324 -10.66829  -1.03518  -0.88555
 Alpha  occ. eigenvalues --   -0.59693  -0.53993  -0.51917  -0.44948  -0.38677
 Alpha  occ. eigenvalues --   -0.38370
 Alpha virt. eigenvalues --    0.03389   0.06486   0.07433   0.10045   0.11154
 Alpha virt. eigenvalues --    0.11713   0.15361   0.15972   0.16681   0.20031
 Alpha virt. eigenvalues --    0.20263   0.25609   0.32308   0.33256   0.34399

 Mulliken charges:
               1
     1  C   -0.093421
     2  C    0.005077
     3  N   -0.211881
     4  H    0.103923
     5  H    0.098095
     6  H    0.098206
 Sum of Mulliken charges =   0.00000

 Dipole moment (field-independent basis, Debye):
    X=             -4.1277    Y=              0.0161    Z=              0.0129  Tot=              4.1277
 Quadrupole moment (field-independent basis, Debye-Ang):
   XX=            -21.0703   YY=            -17.7306   ZZ=            -18.0038
   XY=              0.2000   XZ=              0.0376   YZ=              0.0006

 Normal termination of Gaussian 09 at Wed Aug 26 15:37:40 2020.
