 Gaussian 09, Revision D.01,
 Gaussian 09:  ES64L-G09RevD.01 24-Apr-2013

 --------------------
 #p B2PLYPD3/Def2QZVP
 --------------------

 ------------
 cyanomethane
 ------------
 Symbolic Z-matrix:
 Charge =  0 Multiplicity = 1

                         Standard orientation:
 ---------------------------------------------------------------------
 Center     Atomic      Atomic             Coordinates (Angstroms)
 Number     Number       Type             X           Y           Z
 ---------------------------------------------------------------------
      1          6           0        1.180640    0.006567   -0.000508
      2          6           0       -0.280793   -0.025074    0.001252
      3          7           0       -1.430128    0.013806    0.000520
      4          1           0        1.552282   -0.011292    1.016661
      5          1           0        1.544983    0.922407   -0.498748
      6          1           0        1.514551   -0.896716   -0.526015
 ---------------------------------------------------------------------

 SCF Done:  E(RB2PLYPD3) =  -132.535275189     A.U. after   11 cycles
 E2(B2PLYPD3) =    -0.1801419583D+00 E(B2PLYPD3) =    -0.13271541714738D+03

 The electronic state is 1-A.
 Alpha  occ. eigenvalues --  -14.84002 -10.67332 -10.66060  -1.04249  -0.89058
 Alpha  occ. eigenvalues --   -0.59221  -0.54070  -0.53782  -0.44701  -0.39147
 Alpha  occ. eigenvalues --   -0.39119
 Alpha virt. eigenvalues --    0.03716   0.07864   0.08191   0.10177   0.11463
 Alpha virt. eigenvalues --    0.11527   0.15334   0.15913   0.16536   0.20047
 Alpha virt. eigenvalues --    0.20100   0.25300   0.32720   0.34434   0.34550

 Mulliken charges:
               1
     1  C   -0.092581
     2  C   -0.003039
     3  N   -0.204140
     4  H    0.098967
     5  H    0.100827
     6  H    0.099966
 Sum of Mulliken charges =   0.00000

 Dipole moment (field-independent basis, Debye):
    X=              4.1094    Y=             -0.0224    Z=              0.0108  Tot=              4.1095
 Quadrupole moment (field-independent basis, Debye-Ang):
   XX=            -21.1323   YY=            -17.6452   ZZ=            -17.7712
   XY=              0.0949   XZ=              0.0520   YZ=              0.0029

 Normal termination of Gaussian 09 at Wed Aug 26 23:59:51 2020.
