 Gaussian 09, Revision D.01,
 Gaussian 09:  ES64L-G09RevD.01 24-Apr-2013

 --------------------
 #p B2PLYPD3/Def2QZVP
 --------------------

 ------------
 cyanomethane
 ------------
 Symbolic Z-matrix:
 Charge =  0 Multiplicity = 1

                         Standard orientation:
 ---------------------------------------------------------------------
 Center     Atomic      Atomic             Coordinates (Angstroms)
 Number     Number       Type             X           Y           Z
 ---------------------------------------------------------------------
      1          6           0       -1.203109   -0.008003   -0.014258
      2          6           0        0.281250    0.054181   -0.026004
      3          7           0        1.442113   -0.027556    0.009792
      4          1           0       -1.528907    1.073143   -0.077857
      5          1           0       -1.462900   -0.453519    1.077917
      6          1           0       -1.571832   -0.703801   -0.827030
 ---------------------------------------------------------------------

 SCF Done:  E(RB2PLYPD3) =  -132.520122075     A.U. after   12 cycles
 E2(B2PLYPD3) =    -0.1824673374D+00 E(B2PLYPD3) =    -0.13270258941195D+03

 The electronic state is 1-A.
 Alpha  occ. eigenvalues --  -14.84336 -10.69517 -10.66516  -1.03561  -0.87556
 Alpha  occ. eigenvalues --   -0.57567  -0.53989  -0.51751  -0.44580  -0.38837
 Alpha  occ. eigenvalues --   -0.38421
 Alpha virt. eigenvalues --    0.03075   0.06901   0.07742   0.10101   0.11016
 Alpha virt. eigenvalues --    0.11559   0.14817   0.15200   0.16261   0.20021
 Alpha virt. eigenvalues --    0.20178   0.24906   0.31462   0.32140   0.34293

 Mulliken charges:
               1
     1  C   -0.128643
     2  C    0.004237
     3  N   -0.210203
     4  H    0.112243
     5  H    0.106592
     6  H    0.115773
 Sum of Mulliken charges =   0.00000

 Dipole moment (field-independent basis, Debye):
    X=             -4.0883    Y=              0.0319    Z=             -0.0090  Tot=              4.0884
 Quadrupole moment (field-independent basis, Debye-Ang):
   XX=            -21.6494   YY=            -17.6822   ZZ=            -17.8044
   XY=              0.1571   XZ=              0.0260   YZ=              0.0861

 Normal termination of Gaussian 09 at Wed Aug 26 19:41:24 2020.
