 Gaussian 09, Revision D.01,
 Gaussian 09:  ES64L-G09RevD.01 24-Apr-2013

 --------------------
 #p B2PLYPD3/Def2QZVP
 --------------------

 ------------
 cyanomethane
 ------------
 Symbolic Z-matrix:
 Charge =  0 Multiplicity = 1

                         Standard orientation:
 ---------------------------------------------------------------------
 Center     Atomic      Atomic             Coordinates (Angstroms)
 Number     Number       Type             X           Y           Z
 ---------------------------------------------------------------------
      1          6           0        1.183814    0.023221   -0.010658
      2          6           0       -0.295198   -0.040019    0.000407
      3          7           0       -1.436349    0.020608    0.001064
      4          1           0        1.598281    1.069374   -0.098857
      5          1           0        1.558755   -0.663667   -0.819757
      6          1           0        1.565709   -0.449175    0.972675
 ---------------------------------------------------------------------

 SCF Done:  E(RB2PLYPD3) =  -132.529158390     A.U. after   12 cycles
 E2(B2PLYPD3) =    -0.1802548016D+00 E(B2PLYPD3) =    -0.13270941319125D+03

 The electronic state is 1-A.
 Alpha  occ. eigenvalues --  -14.83954 -10.68730 -10.66085  -1.04587  -0.87710
 Alpha  occ. eigenvalues --   -0.58784  -0.53437  -0.51866  -0.44775  -0.39501
 Alpha  occ. eigenvalues --   -0.39156
 Alpha virt. eigenvalues --    0.03416   0.07364   0.07822   0.10145   0.11455
 Alpha virt. eigenvalues --    0.11796   0.15169   0.15695   0.17209   0.19971
 Alpha virt. eigenvalues --    0.20061   0.25135   0.32169   0.33187   0.34497

 Mulliken charges:
               1
     1  C   -0.102508
     2  C   -0.000120
     3  N   -0.197739
     4  H    0.106514
     5  H    0.099676
     6  H    0.094177
 Sum of Mulliken charges =   0.00000

 Dipole moment (field-independent basis, Debye):
    X=              4.0938    Y=             -0.0510    Z=              0.0063  Tot=              4.0941
 Quadrupole moment (field-independent basis, Debye-Ang):
   XX=            -21.1116   YY=            -17.6238   ZZ=            -17.9569
   XY=              0.0962   XZ=              0.0332   YZ=              0.0268

 Normal termination of Gaussian 09 at Wed Aug 26 15:18:05 2020.
