 Gaussian 09, Revision D.01,
 Gaussian 09:  ES64L-G09RevD.01 24-Apr-2013

 --------------------
 #p B2PLYPD3/Def2QZVP
 --------------------

 ------------
 cyanomethane
 ------------
 Symbolic Z-matrix:
 Charge =  0 Multiplicity = 1

                         Standard orientation:
 ---------------------------------------------------------------------
 Center     Atomic      Atomic             Coordinates (Angstroms)
 Number     Number       Type             X           Y           Z
 ---------------------------------------------------------------------
      1          6           0       -1.168811    0.007444    0.006232
      2          6           0        0.275239    0.016190   -0.007257
      3          7           0        1.430500   -0.013498    0.002515
      4          1           0       -1.496760    1.028660   -0.123356
      5          1           0       -1.564795   -0.430210    0.926992
      6          1           0       -1.590515   -0.645763   -0.815093
 ---------------------------------------------------------------------

 SCF Done:  E(RB2PLYPD3) =  -132.533345092     A.U. after   12 cycles
 E2(B2PLYPD3) =    -0.1807691279D+00 E(B2PLYPD3) =    -0.13271411421985D+03

 The electronic state is 1-A.
 Alpha  occ. eigenvalues --  -14.84216 -10.67351 -10.66237  -1.04107  -0.89218
 Alpha  occ. eigenvalues --   -0.59854  -0.54693  -0.52682  -0.44814  -0.39046
 Alpha  occ. eigenvalues --   -0.38814
 Alpha virt. eigenvalues --    0.03678   0.07301   0.08024   0.10135   0.11361
 Alpha virt. eigenvalues --    0.11742   0.15422   0.16211   0.16533   0.20029
 Alpha virt. eigenvalues --    0.20177   0.25589   0.32698   0.34017   0.34843

 Mulliken charges:
               1
     1  C   -0.086483
     2  C   -0.000090
     3  N   -0.206562
     4  H    0.102315
     5  H    0.097566
     6  H    0.093253
 Sum of Mulliken charges =   0.00000

 Dipole moment (field-independent basis, Debye):
    X=             -4.1179    Y=              0.0064    Z=              0.0045  Tot=              4.1179
 Quadrupole moment (field-independent basis, Debye-Ang):
   XX=            -21.0298   YY=            -17.6352   ZZ=            -17.8872
   XY=              0.1859   XZ=             -0.0201   YZ=             -0.0423

 Normal termination of Gaussian 09 at Thu Aug 27 00:06:40 2020.
