 Gaussian 09, Revision D.01,
 Gaussian 09:  ES64L-G09RevD.01 24-Apr-2013

 --------------------
 #p B2PLYPD3/Def2QZVP
 --------------------

 ------------
 cyanomethane
 ------------
 Symbolic Z-matrix:
 Charge =  0 Multiplicity = 1

                         Standard orientation:
 ---------------------------------------------------------------------
 Center     Atomic      Atomic             Coordinates (Angstroms)
 Number     Number       Type             X           Y           Z
 ---------------------------------------------------------------------
      1          6           0        1.155422    0.010190   -0.011433
      2          6           0       -0.289146   -0.060546   -0.005489
      3          7           0       -1.412943    0.023574    0.015431
      4          1           0        1.729117   -0.001177    0.960583
      5          1           0        1.403024    0.990811   -0.448728
      6          1           0        1.560805   -0.852517   -0.518340
 ---------------------------------------------------------------------

 SCF Done:  E(RB2PLYPD3) =  -132.528778079     A.U. after   12 cycles
 E2(B2PLYPD3) =    -0.1786515419D+00 E(B2PLYPD3) =    -0.13270742962081D+03

 The electronic state is 1-A.
 Alpha  occ. eigenvalues --  -14.83465 -10.67273 -10.65472  -1.05326  -0.88980
 Alpha  occ. eigenvalues --   -0.60241  -0.55026  -0.51394  -0.44777  -0.39823
 Alpha  occ. eigenvalues --   -0.39357
 Alpha virt. eigenvalues --    0.03635   0.07303   0.08527   0.10240   0.11714
 Alpha virt. eigenvalues --    0.12223   0.15416   0.16244   0.17386   0.19796
 Alpha virt. eigenvalues --    0.20139   0.25852   0.32917   0.33947   0.34951

 Mulliken charges:
               1
     1  C   -0.087634
     2  C   -0.000060
     3  N   -0.190917
     4  H    0.084102
     5  H    0.099952
     6  H    0.094557
 Sum of Mulliken charges =   0.00000

 Dipole moment (field-independent basis, Debye):
    X=              4.0734    Y=             -0.0357    Z=             -0.0065  Tot=              4.0736
 Quadrupole moment (field-independent basis, Debye-Ang):
   XX=            -20.7977   YY=            -17.4438   ZZ=            -18.0523
   XY=              0.0162   XZ=              0.3218   YZ=              0.0028

 Normal termination of Gaussian 09 at Wed Aug 26 22:27:52 2020.
