 Gaussian 09, Revision D.01,
 Gaussian 09:  ES64L-G09RevD.01 24-Apr-2013

 --------------------
 #p B2PLYPD3/Def2QZVP
 --------------------

 ------------
 cyanomethane
 ------------
 Symbolic Z-matrix:
 Charge =  0 Multiplicity = 1

                         Standard orientation:
 ---------------------------------------------------------------------
 Center     Atomic      Atomic             Coordinates (Angstroms)
 Number     Number       Type             X           Y           Z
 ---------------------------------------------------------------------
      1          6           0       -1.184641   -0.012281    0.016047
      2          6           0        0.285008    0.049245   -0.005025
      3          7           0        1.414744   -0.020262   -0.006852
      4          1           0       -1.379571   -0.465585    0.908622
      5          1           0       -1.556694   -0.645270   -0.823403
      6          1           0       -1.569144    1.030907   -0.103386
 ---------------------------------------------------------------------

 SCF Done:  E(RB2PLYPD3) =  -132.529384042     A.U. after   12 cycles
 E2(B2PLYPD3) =    -0.1785816220D+00 E(B2PLYPD3) =    -0.13270796566401D+03

 The electronic state is 1-A.
 Alpha  occ. eigenvalues --  -14.83348 -10.67046 -10.65373  -1.04903  -0.89334
 Alpha  occ. eigenvalues --   -0.58271  -0.55804  -0.53149  -0.44486  -0.39664
 Alpha  occ. eigenvalues --   -0.39436
 Alpha virt. eigenvalues --    0.03750   0.08026   0.09054   0.10236   0.11594
 Alpha virt. eigenvalues --    0.11737   0.15290   0.15748   0.16408   0.19944
 Alpha virt. eigenvalues --    0.20067   0.25230   0.32555   0.33941   0.35467

 Mulliken charges:
               1
     1  C   -0.104145
     2  C   -0.010010
     3  N   -0.195314
     4  H    0.110615
     5  H    0.097548
     6  H    0.101305
 Sum of Mulliken charges =   0.00000

 Dipole moment (field-independent basis, Debye):
    X=             -4.0597    Y=              0.0107    Z=              0.0131  Tot=              4.0598
 Quadrupole moment (field-independent basis, Debye-Ang):
   XX=            -21.2982   YY=            -17.4995   ZZ=            -17.6616
   XY=              0.0931   XZ=              0.1788   YZ=             -0.0801

 Normal termination of Gaussian 09 at Wed Aug 26 21:04:43 2020.
