 Gaussian 09, Revision D.01,
 Gaussian 09:  ES64L-G09RevD.01 24-Apr-2013

 --------------------
 #p B2PLYPD3/Def2QZVP
 --------------------

 ------------
 cyanomethane
 ------------
 Symbolic Z-matrix:
 Charge =  0 Multiplicity = 1

                         Standard orientation:
 ---------------------------------------------------------------------
 Center     Atomic      Atomic             Coordinates (Angstroms)
 Number     Number       Type             X           Y           Z
 ---------------------------------------------------------------------
      1          6           0        1.171531   -0.000175   -0.002654
      2          6           0       -0.283541    0.005088    0.023990
      3          7           0       -1.427431   -0.002198   -0.014396
      4          1           0        1.566347    1.008195   -0.204037
      5          1           0        1.571544   -0.684492   -0.762842
      6          1           0        1.526186   -0.337798    0.939635
 ---------------------------------------------------------------------

 SCF Done:  E(RB2PLYPD3) =  -132.535417758     A.U. after   11 cycles
 E2(B2PLYPD3) =    -0.1796070601D+00 E(B2PLYPD3) =    -0.13271502481824D+03

 The electronic state is 1-A.
 Alpha  occ. eigenvalues --  -14.83929 -10.66965 -10.65959  -1.04538  -0.89256
 Alpha  occ. eigenvalues --   -0.59863  -0.54230  -0.53453  -0.44782  -0.39341
 Alpha  occ. eigenvalues --   -0.39279
 Alpha virt. eigenvalues --    0.03756   0.07793   0.08382   0.10181   0.11521
 Alpha virt. eigenvalues --    0.11653   0.15492   0.16129   0.16844   0.20018
 Alpha virt. eigenvalues --    0.20076   0.25446   0.32919   0.34587   0.34814

 Mulliken charges:
               1
     1  C   -0.081527
     2  C   -0.002615
     3  N   -0.200818
     4  H    0.095231
     5  H    0.093984
     6  H    0.095745
 Sum of Mulliken charges =   0.00000

 Dipole moment (field-independent basis, Debye):
    X=              4.1108    Y=             -0.0092    Z=              0.0328  Tot=              4.1109
 Quadrupole moment (field-independent basis, Debye-Ang):
   XX=            -20.9298   YY=            -17.6831   ZZ=            -17.7746
   XY=             -0.0353   XZ=             -0.0929   YZ=             -0.0217

 Normal termination of Gaussian 09 at Thu Aug 27 00:04:01 2020.
