 Gaussian 09, Revision D.01,
 Gaussian 09:  ES64L-G09RevD.01 24-Apr-2013

 --------------------
 #p B2PLYPD3/Def2QZVP
 --------------------

 ------------
 cyanomethane
 ------------
 Symbolic Z-matrix:
 Charge =  0 Multiplicity = 1

                         Standard orientation:
 ---------------------------------------------------------------------
 Center     Atomic      Atomic             Coordinates (Angstroms)
 Number     Number       Type             X           Y           Z
 ---------------------------------------------------------------------
      1          6           0       -1.191370    0.022380    0.008165
      2          6           0        0.289351    0.038027   -0.019468
      3          7           0        1.443381   -0.029888    0.009418
      4          1           0       -1.471293    1.074755   -0.006340
      5          1           0       -1.609599   -0.604310    0.891985
      6          1           0       -1.610665   -0.623668   -0.883748
 ---------------------------------------------------------------------

 SCF Done:  E(RB2PLYPD3) =  -132.521979696     A.U. after   12 cycles
 E2(B2PLYPD3) =    -0.1816618191D+00 E(B2PLYPD3) =    -0.13270364151487D+03

 The electronic state is 1-A.
 Alpha  occ. eigenvalues --  -14.84303 -10.68985 -10.66442  -1.04004  -0.87783
 Alpha  occ. eigenvalues --   -0.58583  -0.54853  -0.50532  -0.44761  -0.39217
 Alpha  occ. eigenvalues --   -0.38626
 Alpha virt. eigenvalues --    0.03248   0.06515   0.08098   0.10130   0.10944
 Alpha virt. eigenvalues --    0.11924   0.14866   0.16154   0.16506   0.19864
 Alpha virt. eigenvalues --    0.20241   0.24954   0.31785   0.32565   0.34765

 Mulliken charges:
               1
     1  C   -0.103608
     2  C    0.000667
     3  N   -0.204731
     4  H    0.113893
     5  H    0.098774
     6  H    0.095006
 Sum of Mulliken charges =   0.00000

 Dipole moment (field-independent basis, Debye):
    X=             -4.1071    Y=             -0.0016    Z=             -0.0085  Tot=              4.1071
 Quadrupole moment (field-independent basis, Debye-Ang):
   XX=            -21.2389   YY=            -17.4584   ZZ=            -18.1828
   XY=              0.4225   XZ=             -0.0622   YZ=             -0.0157

 Normal termination of Gaussian 09 at Wed Aug 26 20:28:46 2020.
