 Gaussian 09, Revision D.01,
 Gaussian 09:  ES64L-G09RevD.01 24-Apr-2013

 --------------------
 #p B2PLYPD3/Def2QZVP
 --------------------

 ------------
 cyanomethane
 ------------
 Symbolic Z-matrix:
 Charge =  0 Multiplicity = 1

                         Standard orientation:
 ---------------------------------------------------------------------
 Center     Atomic      Atomic             Coordinates (Angstroms)
 Number     Number       Type             X           Y           Z
 ---------------------------------------------------------------------
      1          6           0       -1.173426   -0.001340   -0.011226
      2          6           0        0.279419    0.007934   -0.012952
      3          7           0        1.428527   -0.002342    0.009733
      4          1           0       -1.567761   -0.065347    1.020901
      5          1           0       -1.512824   -0.856642   -0.521715
      6          1           0       -1.555058    0.898819   -0.422247
 ---------------------------------------------------------------------

 SCF Done:  E(RB2PLYPD3) =  -132.534524841     A.U. after   11 cycles
 E2(B2PLYPD3) =    -0.1798277328D+00 E(B2PLYPD3) =    -0.13271435257376D+03

 The electronic state is 1-A.
 Alpha  occ. eigenvalues --  -14.84026 -10.66544 -10.66053  -1.04330  -0.89672
 Alpha  occ. eigenvalues --   -0.59995  -0.55330  -0.53233  -0.44768  -0.39329
 Alpha  occ. eigenvalues --   -0.39058
 Alpha virt. eigenvalues --    0.03824   0.07888   0.08477   0.10195   0.11321
 Alpha virt. eigenvalues --    0.11686   0.15493   0.16370   0.16476   0.20017
 Alpha virt. eigenvalues --    0.20132   0.25433   0.32934   0.34328   0.35488

 Mulliken charges:
               1
     1  C   -0.076805
     2  C   -0.002681
     3  N   -0.204100
     4  H    0.089201
     5  H    0.097955
     6  H    0.096430
 Sum of Mulliken charges =   0.00000

 Dipole moment (field-independent basis, Debye):
    X=             -4.1243    Y=              0.0000    Z=             -0.0043  Tot=              4.1243
 Quadrupole moment (field-independent basis, Debye-Ang):
   XX=            -20.9285   YY=            -17.6189   ZZ=            -17.8154
   XY=             -0.0086   XZ=             -0.1149   YZ=              0.0160

 Normal termination of Gaussian 09 at Thu Aug 27 00:05:03 2020.
