 Gaussian 09, Revision D.01,
 Gaussian 09:  ES64L-G09RevD.01 24-Apr-2013

 --------------------
 #p B2PLYPD3/Def2QZVP
 --------------------

 ------------
 cyanomethane
 ------------
 Symbolic Z-matrix:
 Charge =  0 Multiplicity = 1

                         Standard orientation:
 ---------------------------------------------------------------------
 Center     Atomic      Atomic             Coordinates (Angstroms)
 Number     Number       Type             X           Y           Z
 ---------------------------------------------------------------------
      1          6           0        1.177867   -0.017491   -0.000407
      2          6           0       -0.276692   -0.014372   -0.004172
      3          7           0       -1.426382    0.006249   -0.002614
      4          1           0        1.519588    0.930037   -0.430836
      5          1           0        1.598583   -0.783152   -0.510575
      6          1           0        1.459451    0.000554    0.987180
 ---------------------------------------------------------------------

 SCF Done:  E(RB2PLYPD3) =  -132.529153575     A.U. after   12 cycles
 E2(B2PLYPD3) =    -0.1795603091D+00 E(B2PLYPD3) =    -0.13270871388423D+03

 The electronic state is 1-A.
 Alpha  occ. eigenvalues --  -14.83970 -10.66026 -10.65689  -1.04284  -0.90425
 Alpha  occ. eigenvalues --   -0.60332  -0.56114  -0.53861  -0.44710  -0.39387
 Alpha  occ. eigenvalues --   -0.39027
 Alpha virt. eigenvalues --    0.03931   0.08295   0.08853   0.10224   0.11214
 Alpha virt. eigenvalues --    0.11660   0.15518   0.15847   0.16887   0.20046
 Alpha virt. eigenvalues --    0.20164   0.25375   0.32999   0.34451   0.36020

 Mulliken charges:
               1
     1  C   -0.072219
     2  C   -0.002233
     3  N   -0.205983
     4  H    0.088701
     5  H    0.096009
     6  H    0.095725
 Sum of Mulliken charges =   0.00000

 Dipole moment (field-independent basis, Debye):
    X=              4.1339    Y=              0.0070    Z=              0.0221  Tot=              4.1340
 Quadrupole moment (field-independent basis, Debye-Ang):
   XX=            -20.9036   YY=            -17.6607   ZZ=            -17.6782
   XY=              0.0233   XZ=             -0.0587   YZ=              0.0696

 Normal termination of Gaussian 09 at Wed Aug 26 10:28:06 2020.
