 Gaussian 09, Revision D.01,
 Gaussian 09:  ES64L-G09RevD.01 24-Apr-2013

 --------------------
 #p B2PLYPD3/Def2QZVP
 --------------------

 ------------
 cyanomethane
 ------------
 Symbolic Z-matrix:
 Charge =  0 Multiplicity = 1

                         Standard orientation:
 ---------------------------------------------------------------------
 Center     Atomic      Atomic             Coordinates (Angstroms)
 Number     Number       Type             X           Y           Z
 ---------------------------------------------------------------------
      1          6           0        1.177121   -0.013617   -0.018429
      2          6           0       -0.282031    0.017009    0.023696
      3          7           0       -1.430634   -0.009536   -0.010768
      4          1           0        1.520103    1.015828   -0.052520
      5          1           0        1.566807   -0.542200   -0.781475
      6          1           0        1.556990   -0.427226    0.877771
 ---------------------------------------------------------------------

 SCF Done:  E(RB2PLYPD3) =  -132.530375601     A.U. after   12 cycles
 E2(B2PLYPD3) =    -0.1796249150D+00 E(B2PLYPD3) =    -0.13271000051577D+03

 The electronic state is 1-A.
 Alpha  occ. eigenvalues --  -14.84072 -10.66128 -10.65877  -1.04347  -0.90092
 Alpha  occ. eigenvalues --   -0.60683  -0.55153  -0.53882  -0.44804  -0.39414
 Alpha  occ. eigenvalues --   -0.39167
 Alpha virt. eigenvalues --    0.03931   0.08372   0.08419   0.10143   0.11385
 Alpha virt. eigenvalues --    0.11530   0.15513   0.16017   0.17083   0.20062
 Alpha virt. eigenvalues --    0.20109   0.25403   0.32994   0.34578   0.35763

 Mulliken charges:
               1
     1  C   -0.066728
     2  C   -0.000094
     3  N   -0.204587
     4  H    0.089766
     5  H    0.094282
     6  H    0.087361
 Sum of Mulliken charges =   0.00000

 Dipole moment (field-independent basis, Debye):
    X=              4.1317    Y=              0.0064    Z=              0.0300  Tot=              4.1318
 Quadrupole moment (field-independent basis, Debye-Ang):
   XX=            -20.8005   YY=            -17.6583   ZZ=            -17.7731
   XY=             -0.1053   XZ=             -0.0271   YZ=              0.0471

 Normal termination of Gaussian 09 at Wed Aug 26 15:32:51 2020.
