 Gaussian 09, Revision D.01,
 Gaussian 09:  ES64L-G09RevD.01 24-Apr-2013

 --------------------
 #p B2PLYPD3/Def2QZVP
 --------------------

 ------------
 cyanomethane
 ------------
 Symbolic Z-matrix:
 Charge =  0 Multiplicity = 1

                         Standard orientation:
 ---------------------------------------------------------------------
 Center     Atomic      Atomic             Coordinates (Angstroms)
 Number     Number       Type             X           Y           Z
 ---------------------------------------------------------------------
      1          6           0        1.175955    0.009301   -0.006138
      2          6           0       -0.274404   -0.009957   -0.018989
      3          7           0       -1.438299    0.006563    0.012839
      4          1           0        1.510281   -0.531479   -0.855344
      5          1           0        1.563758   -0.525931    0.899432
      6          1           0        1.584749    1.015409    0.016801
 ---------------------------------------------------------------------

 SCF Done:  E(RB2PLYPD3) =  -132.532968251     A.U. after   12 cycles
 E2(B2PLYPD3) =    -0.1813727902D+00 E(B2PLYPD3) =    -0.13271434104081D+03

 The electronic state is 1-A.
 Alpha  occ. eigenvalues --  -14.84485 -10.67083 -10.66543  -1.03753  -0.89400
 Alpha  occ. eigenvalues --   -0.59981  -0.54800  -0.53074  -0.44851  -0.38908
 Alpha  occ. eigenvalues --   -0.38683
 Alpha virt. eigenvalues --    0.03705   0.07327   0.08047   0.10126   0.11231
 Alpha virt. eigenvalues --    0.11546   0.15436   0.15926   0.16740   0.20090
 Alpha virt. eigenvalues --    0.20195   0.25485   0.32651   0.34076   0.35102

 Mulliken charges:
               1
     1  C   -0.081451
     2  C    0.000930
     3  N   -0.210770
     4  H    0.099446
     5  H    0.092757
     6  H    0.099088
 Sum of Mulliken charges =   0.00000

 Dipole moment (field-independent basis, Debye):
    X=              4.1414    Y=             -0.0213    Z=             -0.0182  Tot=              4.1415
 Quadrupole moment (field-independent basis, Debye-Ang):
   XX=            -20.9803   YY=            -17.7376   ZZ=            -17.8384
   XY=              0.0430   XZ=              0.1123   YZ=              0.0538

 Normal termination of Gaussian 09 at Thu Aug 27 00:01:23 2020.
