 Gaussian 09, Revision D.01,
 Gaussian 09:  ES64L-G09RevD.01 24-Apr-2013

 --------------------
 #p B2PLYPD3/Def2QZVP
 --------------------

 ------------
 cyanomethane
 ------------
 Symbolic Z-matrix:
 Charge =  0 Multiplicity = 1

                         Standard orientation:
 ---------------------------------------------------------------------
 Center     Atomic      Atomic             Coordinates (Angstroms)
 Number     Number       Type             X           Y           Z
 ---------------------------------------------------------------------
      1          6           0       -1.176229   -0.009441    0.004342
      2          6           0        0.273347    0.019615   -0.000584
      3          7           0        1.432225   -0.009368   -0.001217
      4          1           0       -1.535146    1.030194   -0.031988
      5          1           0       -1.523916   -0.488770    0.889996
      6          1           0       -1.549225   -0.536896   -0.872036
 ---------------------------------------------------------------------

 SCF Done:  E(RB2PLYPD3) =  -132.534838282     A.U. after   11 cycles
 E2(B2PLYPD3) =    -0.1807980692D+00 E(B2PLYPD3) =    -0.13271563635081D+03

 The electronic state is 1-A.
 Alpha  occ. eigenvalues --  -14.84260 -10.66936 -10.66297  -1.03917  -0.89519
 Alpha  occ. eigenvalues --   -0.59699  -0.54586  -0.53831  -0.44761  -0.38950
 Alpha  occ. eigenvalues --   -0.38832
 Alpha virt. eigenvalues --    0.03783   0.07795   0.08002   0.10146   0.11377
 Alpha virt. eigenvalues --    0.11472   0.15441   0.15980   0.16438   0.20112
 Alpha virt. eigenvalues --    0.20138   0.25490   0.32758   0.34359   0.34948

 Mulliken charges:
               1
     1  C   -0.085437
     2  C   -0.001135
     3  N   -0.209194
     4  H    0.096736
     5  H    0.100904
     6  H    0.098126
 Sum of Mulliken charges =   0.00000

 Dipole moment (field-independent basis, Debye):
    X=             -4.1274    Y=              0.0103    Z=              0.0018  Tot=              4.1274
 Quadrupole moment (field-independent basis, Debye-Ang):
   XX=            -21.0762   YY=            -17.7268   ZZ=            -17.7298
   XY=              0.0576   XZ=              0.0269   YZ=             -0.0198

 Normal termination of Gaussian 09 at Thu Aug 27 00:13:53 2020.
