 Gaussian 09, Revision D.01,
 Gaussian 09:  ES64L-G09RevD.01 24-Apr-2013

 --------------------
 #p B2PLYPD3/Def2QZVP
 --------------------

 ------------
 cyanomethane
 ------------
 Symbolic Z-matrix:
 Charge =  0 Multiplicity = 1

                         Standard orientation:
 ---------------------------------------------------------------------
 Center     Atomic      Atomic             Coordinates (Angstroms)
 Number     Number       Type             X           Y           Z
 ---------------------------------------------------------------------
      1          6           0       -1.182564   -0.004808   -0.000773
      2          6           0        0.279180   -0.000888    0.015894
      3          7           0        1.437482   -0.000422   -0.008763
      4          1           0       -1.540414    0.004762    0.988084
      5          1           0       -1.567427   -0.861943   -0.515448
      6          1           0       -1.534224    0.894311   -0.502014
 ---------------------------------------------------------------------

 SCF Done:  E(RB2PLYPD3) =  -132.534648415     A.U. after   11 cycles
 E2(B2PLYPD3) =    -0.1805676067D+00 E(B2PLYPD3) =    -0.13271521602138D+03

 The electronic state is 1-A.
 Alpha  occ. eigenvalues --  -14.84303 -10.66598 -10.66377  -1.03944  -0.89608
 Alpha  occ. eigenvalues --   -0.59906  -0.54675  -0.54004  -0.44791  -0.39077
 Alpha  occ. eigenvalues --   -0.38977
 Alpha virt. eigenvalues --    0.03829   0.07922   0.08276   0.10191   0.11280
 Alpha virt. eigenvalues --    0.11410   0.15407   0.16105   0.16567   0.20096
 Alpha virt. eigenvalues --    0.20128   0.25265   0.32771   0.34662   0.35182

 Mulliken charges:
               1
     1  C   -0.076666
     2  C   -0.001502
     3  N   -0.208531
     4  H    0.095980
     5  H    0.096202
     6  H    0.094517
 Sum of Mulliken charges =   0.00000

 Dipole moment (field-independent basis, Debye):
    X=             -4.1442    Y=              0.0054    Z=              0.0189  Tot=              4.1442
 Quadrupole moment (field-independent basis, Debye-Ang):
   XX=            -20.9399   YY=            -17.7344   ZZ=            -17.7613
   XY=              0.0138   XZ=              0.0408   YZ=              0.0156

 Normal termination of Gaussian 09 at Wed Aug 26 10:59:30 2020.
