 Gaussian 09, Revision D.01,
 Gaussian 09:  ES64L-G09RevD.01 24-Apr-2013

 --------------------
 #p B2PLYPD3/Def2QZVP
 --------------------

 ------------
 cyanomethane
 ------------
 Symbolic Z-matrix:
 Charge =  0 Multiplicity = 1

                         Standard orientation:
 ---------------------------------------------------------------------
 Center     Atomic      Atomic             Coordinates (Angstroms)
 Number     Number       Type             X           Y           Z
 ---------------------------------------------------------------------
      1          6           0        1.158688   -0.013302   -0.004949
      2          6           0       -0.269134    0.019564   -0.009355
      3          7           0       -1.431800   -0.008965    0.006004
      4          1           0        1.557761    1.000045   -0.053739
      5          1           0        1.557145   -0.550882   -0.757865
      6          1           0        1.570369   -0.423981    0.855400
 ---------------------------------------------------------------------

 SCF Done:  E(RB2PLYPD3) =  -132.527338061     A.U. after   11 cycles
 E2(B2PLYPD3) =    -0.1808095941D+00 E(B2PLYPD3) =    -0.13270814765502D+03

 The electronic state is 1-A.
 Alpha  occ. eigenvalues --  -14.84502 -10.66486 -10.65413  -1.03931  -0.90733
 Alpha  occ. eigenvalues --   -0.61938  -0.55163  -0.53909  -0.44972  -0.38979
 Alpha  occ. eigenvalues --   -0.38787
 Alpha virt. eigenvalues --    0.03934   0.07736   0.08127   0.10085   0.11373
 Alpha virt. eigenvalues --    0.11576   0.15736   0.16498   0.16891   0.20113
 Alpha virt. eigenvalues --    0.20216   0.25913   0.33101   0.34824   0.35747

 Mulliken charges:
               1
     1  C   -0.050575
     2  C    0.005703
     3  N   -0.211329
     4  H    0.084667
     5  H    0.088051
     6  H    0.083483
 Sum of Mulliken charges =   0.00000

 Dipole moment (field-independent basis, Debye):
    X=              4.1618    Y=             -0.0087    Z=              0.0031  Tot=              4.1618
 Quadrupole moment (field-independent basis, Debye-Ang):
   XX=            -20.6082   YY=            -17.6967   ZZ=            -17.8696
   XY=             -0.0986   XZ=              0.0711   YZ=              0.0374

 Normal termination of Gaussian 09 at Wed Aug 26 15:43:17 2020.
