 Gaussian 09, Revision D.01,
 Gaussian 09:  ES64L-G09RevD.01 24-Apr-2013

 --------------------
 #p B2PLYPD3/Def2QZVP
 --------------------

 ------------
 cyanomethane
 ------------
 Symbolic Z-matrix:
 Charge =  0 Multiplicity = 1

                         Standard orientation:
 ---------------------------------------------------------------------
 Center     Atomic      Atomic             Coordinates (Angstroms)
 Number     Number       Type             X           Y           Z
 ---------------------------------------------------------------------
      1          6           0        1.174614   -0.001773   -0.017009
      2          6           0       -0.280977    0.008467   -0.022541
      3          7           0       -1.426978   -0.005565    0.017268
      4          1           0        1.594202   -0.040099    1.012077
      5          1           0        1.502876    0.901231   -0.414009
      6          1           0        1.529944   -0.862338   -0.481642
 ---------------------------------------------------------------------

 SCF Done:  E(RB2PLYPD3) =  -132.531546670     A.U. after   11 cycles
 E2(B2PLYPD3) =    -0.1795651170D+00 E(B2PLYPD3) =    -0.13271111178652D+03

 The electronic state is 1-A.
 Alpha  occ. eigenvalues --  -14.83952 -10.66275 -10.65970  -1.04431  -0.89874
 Alpha  occ. eigenvalues --   -0.60034  -0.56258  -0.52706  -0.44753  -0.39488
 Alpha  occ. eigenvalues --   -0.39057
 Alpha virt. eigenvalues --    0.03816   0.07857   0.08824   0.10199   0.11203
 Alpha virt. eigenvalues --    0.11785   0.15483   0.16328   0.16632   0.19966
 Alpha virt. eigenvalues --    0.20156   0.25395   0.32953   0.34180   0.35938

 Mulliken charges:
               1
     1  C   -0.073728
     2  C   -0.003188
     3  N   -0.202916
     4  H    0.084034
     5  H    0.098002
     6  H    0.097795
 Sum of Mulliken charges =   0.00000

 Dipole moment (field-independent basis, Debye):
    X=              4.1220    Y=              0.0084    Z=             -0.0051  Tot=              4.1220
 Quadrupole moment (field-independent basis, Debye-Ang):
   XX=            -20.8958   YY=            -17.5160   ZZ=            -17.8919
   XY=             -0.0543   XZ=              0.2187   YZ=              0.0082

 Normal termination of Gaussian 09 at Wed Aug 26 11:45:00 2020.
