 Gaussian 09, Revision D.01,
 Gaussian 09:  ES64L-G09RevD.01 24-Apr-2013

 --------------------
 #p B2PLYPD3/Def2QZVP
 --------------------

 ------------
 cyanomethane
 ------------
 Symbolic Z-matrix:
 Charge =  0 Multiplicity = 1

                         Standard orientation:
 ---------------------------------------------------------------------
 Center     Atomic      Atomic             Coordinates (Angstroms)
 Number     Number       Type             X           Y           Z
 ---------------------------------------------------------------------
      1          6           0        1.178038   -0.016656    0.020093
      2          6           0       -0.262062    0.038521    0.002508
      3          7           0       -1.432017   -0.010362   -0.003632
      4          1           0        1.497842   -0.084681    0.981219
      5          1           0        1.603667    0.927744   -0.491886
      6          1           0        1.426755   -0.901716   -0.599523
 ---------------------------------------------------------------------

 SCF Done:  E(RB2PLYPD3) =  -132.525830685     A.U. after   12 cycles
 E2(B2PLYPD3) =    -0.1820007110D+00 E(B2PLYPD3) =    -0.13270783139568D+03

 The electronic state is 1-A.
 Alpha  occ. eigenvalues --  -14.84473 -10.67166 -10.66520  -1.03444  -0.89783
 Alpha  occ. eigenvalues --   -0.59573  -0.55580  -0.53085  -0.44705  -0.38654
 Alpha  occ. eigenvalues --   -0.38292
 Alpha virt. eigenvalues --    0.03646   0.07095   0.08176   0.10104   0.11154
 Alpha virt. eigenvalues --    0.11539   0.15266   0.15772   0.16066   0.20163
 Alpha virt. eigenvalues --    0.20210   0.25638   0.32041   0.33674   0.35021

 Mulliken charges:
               1
     1  C   -0.098061
     2  C    0.001648
     3  N   -0.216173
     4  H    0.109486
     5  H    0.096442
     6  H    0.106658
 Sum of Mulliken charges =   0.00000

 Dipole moment (field-independent basis, Debye):
    X=              4.1200    Y=             -0.0047    Z=              0.0083  Tot=              4.1200
 Quadrupole moment (field-independent basis, Debye-Ang):
   XX=            -21.3094   YY=            -17.7355   ZZ=            -17.6920
   XY=              0.0564   XZ=             -0.0110   YZ=              0.0315

 Normal termination of Gaussian 09 at Wed Aug 26 14:54:26 2020.
