 Gaussian 09, Revision D.01,
 Gaussian 09:  ES64L-G09RevD.01 24-Apr-2013

 --------------------
 #p B2PLYPD3/Def2QZVP
 --------------------

 ------------
 cyanomethane
 ------------
 Symbolic Z-matrix:
 Charge =  0 Multiplicity = 1

                         Standard orientation:
 ---------------------------------------------------------------------
 Center     Atomic      Atomic             Coordinates (Angstroms)
 Number     Number       Type             X           Y           Z
 ---------------------------------------------------------------------
      1          6           0       -1.177994    0.003016   -0.006274
      2          6           0        0.287197   -0.006375    0.017347
      3          7           0        1.434792    0.002129   -0.010715
      4          1           0       -1.595107   -0.799514   -0.640581
      5          1           0       -1.565638    0.964961   -0.361923
      6          1           0       -1.538022   -0.160201    1.011071
 ---------------------------------------------------------------------

 SCF Done:  E(RB2PLYPD3) =  -132.535432548     A.U. after   12 cycles
 E2(B2PLYPD3) =    -0.1800391169D+00 E(B2PLYPD3) =    -0.13271547166451D+03

 The electronic state is 1-A.
 Alpha  occ. eigenvalues --  -14.84073 -10.67412 -10.66158  -1.04396  -0.88826
 Alpha  occ. eigenvalues --   -0.59688  -0.53672  -0.53360  -0.44810  -0.39296
 Alpha  occ. eigenvalues --   -0.39233
 Alpha virt. eigenvalues --    0.03706   0.07753   0.08090   0.10188   0.11515
 Alpha virt. eigenvalues --    0.11545   0.15381   0.16123   0.16873   0.20034
 Alpha virt. eigenvalues --    0.20068   0.25246   0.32673   0.34436   0.34692

 Mulliken charges:
               1
     1  C   -0.084157
     2  C   -0.001582
     3  N   -0.201896
     4  H    0.095406
     5  H    0.097020
     6  H    0.095209
 Sum of Mulliken charges =   0.00000

 Dipole moment (field-independent basis, Debye):
    X=             -4.1206    Y=             -0.0037    Z=              0.0261  Tot=              4.1207
 Quadrupole moment (field-independent basis, Debye-Ang):
   XX=            -20.9361   YY=            -17.7489   ZZ=            -17.7952
   XY=              0.0058   XZ=              0.0752   YZ=             -0.0083

 Normal termination of Gaussian 09 at Wed Aug 26 16:07:53 2020.
