 Gaussian 09, Revision D.01,
 Gaussian 09:  ES64L-G09RevD.01 24-Apr-2013

 --------------------
 #p B2PLYPD3/Def2QZVP
 --------------------

 ------------
 cyanomethane
 ------------
 Symbolic Z-matrix:
 Charge =  0 Multiplicity = 1

                         Standard orientation:
 ---------------------------------------------------------------------
 Center     Atomic      Atomic             Coordinates (Angstroms)
 Number     Number       Type             X           Y           Z
 ---------------------------------------------------------------------
      1          6           0       -1.179112    0.020837    0.002662
      2          6           0        0.290358    0.039531   -0.031002
      3          7           0        1.450136   -0.035342    0.024884
      4          1           0       -1.401114    0.883571   -0.396767
      5          1           0       -1.750763   -0.135541    0.965921
      6          1           0       -1.666555   -0.862845   -0.573301
 ---------------------------------------------------------------------

 SCF Done:  E(RB2PLYPD3) =  -132.510943103     A.U. after   12 cycles
 E2(B2PLYPD3) =    -0.1819369698D+00 E(B2PLYPD3) =    -0.13269288007271D+03

 The electronic state is 1-A.
 Alpha  occ. eigenvalues --  -14.84773 -10.67154 -10.66895  -1.03959  -0.89381
 Alpha  occ. eigenvalues --   -0.60641  -0.56016  -0.50350  -0.45081  -0.39248
 Alpha  occ. eigenvalues --   -0.38667
 Alpha virt. eigenvalues --    0.03315   0.06125   0.08770   0.09880   0.10956
 Alpha virt. eigenvalues --    0.11930   0.15187   0.16216   0.17730   0.19838
 Alpha virt. eigenvalues --    0.20611   0.25303   0.32028   0.33316   0.35403

 Mulliken charges:
               1
     1  C   -0.079851
     2  C    0.007561
     3  N   -0.207603
     4  H    0.107567
     5  H    0.088452
     6  H    0.083874
 Sum of Mulliken charges =   0.00000

 Dipole moment (field-independent basis, Debye):
    X=             -4.1506    Y=              0.0445    Z=             -0.0285  Tot=              4.1510
 Quadrupole moment (field-independent basis, Debye-Ang):
   XX=            -20.5382   YY=            -17.7616   ZZ=            -18.1555
   XY=              0.4306   XZ=             -0.2952   YZ=             -0.1427

 Normal termination of Gaussian 09 at Wed Aug 26 23:47:55 2020.
