 Gaussian 09, Revision D.01,
 Gaussian 09:  ES64L-G09RevD.01 24-Apr-2013

 --------------------
 #p B2PLYPD3/Def2QZVP
 --------------------

 ------------
 cyanomethane
 ------------
 Symbolic Z-matrix:
 Charge =  0 Multiplicity = 1

                         Standard orientation:
 ---------------------------------------------------------------------
 Center     Atomic      Atomic             Coordinates (Angstroms)
 Number     Number       Type             X           Y           Z
 ---------------------------------------------------------------------
      1          6           0       -1.173473    0.006402   -0.000480
      2          6           0        0.276413    0.009423   -0.010918
      3          7           0        1.439332   -0.004154    0.003344
      4          1           0       -1.578669   -0.643556   -0.795454
      5          1           0       -1.589022    0.996602   -0.112407
      6          1           0       -1.525272   -0.418916    0.952842
 ---------------------------------------------------------------------

 SCF Done:  E(RB2PLYPD3) =  -132.534291139     A.U. after   12 cycles
 E2(B2PLYPD3) =    -0.1813119355D+00 E(B2PLYPD3) =    -0.13271560307454D+03

 The electronic state is 1-A.
 Alpha  occ. eigenvalues --  -14.84487 -10.67241 -10.66557  -1.03828  -0.89211
 Alpha  occ. eigenvalues --   -0.60168  -0.54089  -0.53253  -0.44889  -0.38926
 Alpha  occ. eigenvalues --   -0.38756
 Alpha virt. eigenvalues --    0.03716   0.07495   0.07677   0.10150   0.11324
 Alpha virt. eigenvalues --    0.11545   0.15443   0.16207   0.16644   0.20101
 Alpha virt. eigenvalues --    0.20156   0.25479   0.32648   0.34202   0.34890

 Mulliken charges:
               1
     1  C   -0.079503
     2  C    0.001619
     3  N   -0.209651
     4  H    0.094411
     5  H    0.097788
     6  H    0.095335
 Sum of Mulliken charges =   0.00000

 Dipole moment (field-independent basis, Debye):
    X=             -4.1441    Y=             -0.0042    Z=              0.0040  Tot=              4.1441
 Quadrupole moment (field-independent basis, Debye-Ang):
   XX=            -20.9224   YY=            -17.7657   ZZ=            -17.8603
   XY=              0.0231   XZ=              0.0037   YZ=             -0.0076

 Normal termination of Gaussian 09 at Thu Aug 27 00:10:44 2020.
