 Gaussian 09, Revision D.01,
 Gaussian 09:  ES64L-G09RevD.01 24-Apr-2013

 --------------------
 #p B2PLYPD3/Def2QZVP
 --------------------

 ------------
 cyanomethane
 ------------
 Symbolic Z-matrix:
 Charge =  0 Multiplicity = 1

                         Standard orientation:
 ---------------------------------------------------------------------
 Center     Atomic      Atomic             Coordinates (Angstroms)
 Number     Number       Type             X           Y           Z
 ---------------------------------------------------------------------
      1          6           0       -1.202259    0.011655    0.004058
      2          6           0        0.290024   -0.015259    0.045932
      3          7           0        1.437769    0.011240   -0.032052
      4          1           0       -1.545878   -0.856224   -0.644572
      5          1           0       -1.622713    0.945382   -0.423473
      6          1           0       -1.422383   -0.146212    0.992471
 ---------------------------------------------------------------------

 SCF Done:  E(RB2PLYPD3) =  -132.526650552     A.U. after   12 cycles
 E2(B2PLYPD3) =    -0.1803933172D+00 E(B2PLYPD3) =    -0.13270704386920D+03

 The electronic state is 1-A.
 Alpha  occ. eigenvalues --  -14.84040 -10.67518 -10.66159  -1.04157  -0.88877
 Alpha  occ. eigenvalues --   -0.58436  -0.55381  -0.52630  -0.44621  -0.39306
 Alpha  occ. eigenvalues --   -0.39104
 Alpha virt. eigenvalues --    0.03536   0.07444   0.09118   0.10143   0.11042
 Alpha virt. eigenvalues --    0.11537   0.15050   0.15318   0.16998   0.19979
 Alpha virt. eigenvalues --    0.20158   0.24826   0.32279   0.33802   0.35198

 Mulliken charges:
               1
     1  C   -0.101906
     2  C   -0.004288
     3  N   -0.203998
     4  H    0.097882
     5  H    0.102906
     6  H    0.109404
 Sum of Mulliken charges =   0.00000

 Dipole moment (field-independent basis, Debye):
    X=             -4.1094    Y=             -0.0217    Z=              0.0516  Tot=              4.1097
 Quadrupole moment (field-independent basis, Debye-Ang):
   XX=            -21.2006   YY=            -17.7425   ZZ=            -17.6771
   XY=             -0.1215   XZ=              0.3012   YZ=             -0.0474

 Normal termination of Gaussian 09 at Wed Aug 26 22:45:12 2020.
