 Gaussian 09, Revision D.01,
 Gaussian 09:  ES64L-G09RevD.01 24-Apr-2013

 --------------------
 #p B2PLYPD3/Def2QZVP
 --------------------

 ------------
 cyanomethane
 ------------
 Symbolic Z-matrix:
 Charge =  0 Multiplicity = 1

                         Standard orientation:
 ---------------------------------------------------------------------
 Center     Atomic      Atomic             Coordinates (Angstroms)
 Number     Number       Type             X           Y           Z
 ---------------------------------------------------------------------
      1          6           0       -1.196657    0.015580    0.010811
      2          6           0        0.283899    0.040528    0.019761
      3          7           0        1.430801   -0.009839   -0.007300
      4          1           0       -1.510997   -0.463359    0.992724
      5          1           0       -1.372247   -0.828419   -0.866826
      6          1           0       -1.655814    1.024004   -0.258228
 ---------------------------------------------------------------------

 SCF Done:  E(RB2PLYPD3) =  -132.517132631     A.U. after   12 cycles
 E2(B2PLYPD3) =    -0.1812950800D+00 E(B2PLYPD3) =    -0.13269842771131D+03

 The electronic state is 1-A.
 Alpha  occ. eigenvalues --  -14.83795 -10.69782 -10.66049  -1.04179  -0.87430
 Alpha  occ. eigenvalues --   -0.57602  -0.53986  -0.51216  -0.44485  -0.39244
 Alpha  occ. eigenvalues --   -0.38484
 Alpha virt. eigenvalues --    0.03050   0.07102   0.07679   0.10218   0.11262
 Alpha virt. eigenvalues --    0.12095   0.14678   0.15090   0.16679   0.19967
 Alpha virt. eigenvalues --    0.20182   0.24830   0.30883   0.31787   0.34639

 Mulliken charges:
               1
     1  C   -0.136696
     2  C    0.003621
     3  N   -0.203504
     4  H    0.113712
     5  H    0.105533
     6  H    0.117335
 Sum of Mulliken charges =   0.00000

 Dipole moment (field-independent basis, Debye):
    X=             -4.0753    Y=             -0.0037    Z=              0.0149  Tot=              4.0753
 Quadrupole moment (field-independent basis, Debye-Ang):
   XX=            -21.6682   YY=            -17.5743   ZZ=            -17.8428
   XY=             -0.1349   XZ=             -0.0358   YZ=             -0.1307

 Normal termination of Gaussian 09 at Wed Aug 26 23:49:23 2020.
