 Gaussian 09, Revision D.01,
 Gaussian 09:  ES64L-G09RevD.01 24-Apr-2013

 --------------------
 #p B2PLYPD3/Def2QZVP
 --------------------

 ------------
 cyanomethane
 ------------
 Symbolic Z-matrix:
 Charge =  0 Multiplicity = 1

                         Standard orientation:
 ---------------------------------------------------------------------
 Center     Atomic      Atomic             Coordinates (Angstroms)
 Number     Number       Type             X           Y           Z
 ---------------------------------------------------------------------
      1          6           0        1.164101    0.019710   -0.001582
      2          6           0       -0.278751   -0.034019   -0.017595
      3          7           0       -1.426276    0.015633    0.007260
      4          1           0        1.560808    1.057397   -0.143425
      5          1           0        1.580877   -0.686643   -0.784611
      6          1           0        1.530146   -0.394333    0.992280
 ---------------------------------------------------------------------

 SCF Done:  E(RB2PLYPD3) =  -132.531313636     A.U. after   12 cycles
 E2(B2PLYPD3) =    -0.1806096299D+00 E(B2PLYPD3) =    -0.13271192326548D+03

 The electronic state is 1-A.
 Alpha  occ. eigenvalues --  -14.84049 -10.68171 -10.66059  -1.04396  -0.88558
 Alpha  occ. eigenvalues --   -0.59409  -0.53640  -0.52468  -0.44813  -0.39156
 Alpha  occ. eigenvalues --   -0.38880
 Alpha virt. eigenvalues --    0.03520   0.07335   0.07474   0.10101   0.11589
 Alpha virt. eigenvalues --    0.11851   0.15431   0.15828   0.16916   0.20014
 Alpha virt. eigenvalues --    0.20109   0.25704   0.32566   0.33453   0.34459

 Mulliken charges:
               1
     1  C   -0.098208
     2  C    0.001454
     3  N   -0.202150
     4  H    0.105038
     5  H    0.096741
     6  H    0.097125
 Sum of Mulliken charges =   0.00000

 Dipole moment (field-independent basis, Debye):
    X=              4.0876    Y=             -0.0382    Z=              0.0022  Tot=              4.0878
 Quadrupole moment (field-independent basis, Debye-Ang):
   XX=            -21.1186   YY=            -17.6347   ZZ=            -17.8928
   XY=              0.0434   XZ=              0.0374   YZ=             -0.0123

 Normal termination of Gaussian 09 at Wed Aug 26 12:42:31 2020.
