 Gaussian 09, Revision D.01,
 Gaussian 09:  ES64L-G09RevD.01 24-Apr-2013

 --------------------
 #p B2PLYPD3/Def2QZVP
 --------------------

 ------------
 cyanomethane
 ------------
 Symbolic Z-matrix:
 Charge =  0 Multiplicity = 1

                         Standard orientation:
 ---------------------------------------------------------------------
 Center     Atomic      Atomic             Coordinates (Angstroms)
 Number     Number       Type             X           Y           Z
 ---------------------------------------------------------------------
      1          6           0        1.174481    0.003247   -0.005724
      2          6           0       -0.280758   -0.019907   -0.011826
      3          7           0       -1.444015    0.016649    0.008069
      4          1           0        1.509855   -0.682989   -0.730778
      5          1           0        1.569096   -0.330809    0.962918
      6          1           0        1.666816    0.997212   -0.183324
 ---------------------------------------------------------------------

 SCF Done:  E(RB2PLYPD3) =  -132.531213181     A.U. after   12 cycles
 E2(B2PLYPD3) =    -0.1814745034D+00 E(B2PLYPD3) =    -0.13271268768480D+03

 The electronic state is 1-A.
 Alpha  occ. eigenvalues --  -14.84610 -10.67155 -10.66703  -1.03840  -0.89217
 Alpha  occ. eigenvalues --   -0.60441  -0.54360  -0.52644  -0.44970  -0.38967
 Alpha  occ. eigenvalues --   -0.38816
 Alpha virt. eigenvalues --    0.03647   0.07036   0.08072   0.10110   0.11267
 Alpha virt. eigenvalues --    0.11567   0.15443   0.15989   0.17236   0.20068
 Alpha virt. eigenvalues --    0.20243   0.25437   0.32547   0.34302   0.34922

 Mulliken charges:
               1
     1  C   -0.073821
     2  C    0.003451
     3  N   -0.209432
     4  H    0.096745
     5  H    0.090699
     6  H    0.092359
 Sum of Mulliken charges =   0.00000

 Dipole moment (field-independent basis, Debye):
    X=              4.1529    Y=             -0.0478    Z=             -0.0019  Tot=              4.1532
 Quadrupole moment (field-independent basis, Debye-Ang):
   XX=            -20.7718   YY=            -17.8233   ZZ=            -17.9031
   XY=              0.1448   XZ=              0.0922   YZ=              0.0523

 Normal termination of Gaussian 09 at Wed Aug 26 12:44:52 2020.
