 Gaussian 09, Revision D.01,
 Gaussian 09:  ES64L-G09RevD.01 24-Apr-2013

 --------------------
 #p B2PLYPD3/Def2QZVP
 --------------------

 ------------
 cyanomethane
 ------------
 Symbolic Z-matrix:
 Charge =  0 Multiplicity = 1

                         Standard orientation:
 ---------------------------------------------------------------------
 Center     Atomic      Atomic             Coordinates (Angstroms)
 Number     Number       Type             X           Y           Z
 ---------------------------------------------------------------------
      1          6           0       -1.178512   -0.021460    0.019237
      2          6           0        0.276768   -0.071757   -0.031047
      3          7           0        1.456088    0.040218    0.007939
      4          1           0       -1.517252   -0.394826    0.870031
      5          1           0       -1.670323   -0.408782   -0.841980
      6          1           0       -1.594581    1.081385   -0.012761
 ---------------------------------------------------------------------

 SCF Done:  E(RB2PLYPD3) =  -132.515745997     A.U. after   12 cycles
 E2(B2PLYPD3) =    -0.1834721955D+00 E(B2PLYPD3) =    -0.13269921819275D+03

 The electronic state is 1-A.
 Alpha  occ. eigenvalues --  -14.85339 -10.67437 -10.66765  -1.03105  -0.89647
 Alpha  occ. eigenvalues --   -0.61281  -0.56376  -0.51004  -0.45168  -0.38824
 Alpha  occ. eigenvalues --   -0.38098
 Alpha virt. eigenvalues --    0.03137   0.06695   0.07796   0.10089   0.10763
 Alpha virt. eigenvalues --    0.11610   0.15459   0.16491   0.16921   0.20043
 Alpha virt. eigenvalues --    0.20296   0.25578   0.32162   0.32846   0.36155

 Mulliken charges:
               1
     1  C   -0.064631
     2  C    0.011409
     3  N   -0.217054
     4  H    0.101404
     5  H    0.090250
     6  H    0.078622
 Sum of Mulliken charges =   0.00000

 Dipole moment (field-independent basis, Debye):
    X=             -4.1693    Y=             -0.0386    Z=             -0.0136  Tot=              4.1695
 Quadrupole moment (field-independent basis, Debye-Ang):
   XX=            -20.6195   YY=            -18.1191   ZZ=            -17.8134
   XY=             -0.2697   XZ=              0.0833   YZ=             -0.0821

 Normal termination of Gaussian 09 at Wed Aug 26 16:26:22 2020.
