 Gaussian 09, Revision D.01,
 Gaussian 09:  ES64L-G09RevD.01 24-Apr-2013

 --------------------
 #p B2PLYPD3/Def2QZVP
 --------------------

 ------------
 cyanomethane
 ------------
 Symbolic Z-matrix:
 Charge =  0 Multiplicity = 1

                         Standard orientation:
 ---------------------------------------------------------------------
 Center     Atomic      Atomic             Coordinates (Angstroms)
 Number     Number       Type             X           Y           Z
 ---------------------------------------------------------------------
      1          6           0        1.167575    0.019286    0.001950
      2          6           0       -0.278404    0.003359    0.019783
      3          7           0       -1.430188   -0.008527   -0.012486
      4          1           0        1.500113    1.052504   -0.045218
      5          1           0        1.611809   -0.591604   -0.869653
      6          1           0        1.564367   -0.537080    0.871877
 ---------------------------------------------------------------------

 SCF Done:  E(RB2PLYPD3) =  -132.530982288     A.U. after   12 cycles
 E2(B2PLYPD3) =    -0.1807262693D+00 E(B2PLYPD3) =    -0.13271170855682D+03

 The electronic state is 1-A.
 Alpha  occ. eigenvalues --  -14.84148 -10.67766 -10.66174  -1.04250  -0.88886
 Alpha  occ. eigenvalues --   -0.59684  -0.54909  -0.51782  -0.44821  -0.39209
 Alpha  occ. eigenvalues --   -0.38748
 Alpha virt. eigenvalues --    0.03563   0.07086   0.07979   0.10147   0.11328
 Alpha virt. eigenvalues --    0.11918   0.15358   0.16171   0.16709   0.19969
 Alpha virt. eigenvalues --    0.20184   0.25565   0.32562   0.33465   0.34971

 Mulliken charges:
               1
     1  C   -0.089393
     2  C    0.000202
     3  N   -0.204238
     4  H    0.106105
     5  H    0.091283
     6  H    0.096041
 Sum of Mulliken charges =   0.00000

 Dipole moment (field-independent basis, Debye):
    X=              4.1106    Y=             -0.0172    Z=              0.0268  Tot=              4.1108
 Quadrupole moment (field-independent basis, Debye-Ang):
   XX=            -21.0377   YY=            -17.5413   ZZ=            -18.0166
   XY=             -0.2130   XZ=             -0.0870   YZ=             -0.0493

 Normal termination of Gaussian 09 at Wed Aug 26 15:22:13 2020.
