 Gaussian 09, Revision D.01,
 Gaussian 09:  ES64L-G09RevD.01 24-Apr-2013

 --------------------
 #p B2PLYPD3/Def2QZVP
 --------------------

 ------------
 cyanomethane
 ------------
 Symbolic Z-matrix:
 Charge =  0 Multiplicity = 1

                         Standard orientation:
 ---------------------------------------------------------------------
 Center     Atomic      Atomic             Coordinates (Angstroms)
 Number     Number       Type             X           Y           Z
 ---------------------------------------------------------------------
      1          6           0        1.161992    0.015804    0.005156
      2          6           0       -0.271013   -0.010699   -0.018275
      3          7           0       -1.434408    0.002571    0.005934
      4          1           0        1.561243    0.973042   -0.281211
      5          1           0        1.605910   -0.768181   -0.685016
      6          1           0        1.527826   -0.253492    1.003404
 ---------------------------------------------------------------------

 SCF Done:  E(RB2PLYPD3) =  -132.532572648     A.U. after   12 cycles
 E2(B2PLYPD3) =    -0.1815031086D+00 E(B2PLYPD3) =    -0.13271407575690D+03

 The electronic state is 1-A.
 Alpha  occ. eigenvalues --  -14.84502 -10.67280 -10.66509  -1.03858  -0.89357
 Alpha  occ. eigenvalues --   -0.60453  -0.54375  -0.52742  -0.44928  -0.38864
 Alpha  occ. eigenvalues --   -0.38598
 Alpha virt. eigenvalues --    0.03689   0.07139   0.07574   0.10099   0.11397
 Alpha virt. eigenvalues --    0.11679   0.15546   0.16210   0.16713   0.20109
 Alpha virt. eigenvalues --    0.20168   0.25803   0.32585   0.34035   0.34939

 Mulliken charges:
               1
     1  C   -0.079078
     2  C    0.002934
     3  N   -0.209946
     4  H    0.099711
     5  H    0.090169
     6  H    0.096210
 Sum of Mulliken charges =   0.00000

 Dipole moment (field-independent basis, Debye):
    X=              4.1356    Y=             -0.0083    Z=              0.0056  Tot=              4.1356
 Quadrupole moment (field-independent basis, Debye-Ang):
   XX=            -20.9138   YY=            -17.7651   ZZ=            -17.8719
   XY=             -0.0264   XZ=              0.0097   YZ=             -0.0583

 Normal termination of Gaussian 09 at Wed Aug 26 13:06:00 2020.
