 Gaussian 09, Revision D.01,
 Gaussian 09:  ES64L-G09RevD.01 24-Apr-2013

 --------------------
 #p B2PLYPD3/Def2QZVP
 --------------------

 ------------
 cyanomethane
 ------------
 Symbolic Z-matrix:
 Charge =  0 Multiplicity = 1

                         Standard orientation:
 ---------------------------------------------------------------------
 Center     Atomic      Atomic             Coordinates (Angstroms)
 Number     Number       Type             X           Y           Z
 ---------------------------------------------------------------------
      1          6           0        1.170760    0.016196    0.010865
      2          6           0       -0.268779    0.006870   -0.024407
      3          7           0       -1.431188   -0.007441    0.007059
      4          1           0        1.515013    1.020666   -0.109386
      5          1           0        1.602336   -0.663879   -0.790559
      6          1           0        1.489073   -0.443097    0.931784
 ---------------------------------------------------------------------

 SCF Done:  E(RB2PLYPD3) =  -132.531971449     A.U. after   12 cycles
 E2(B2PLYPD3) =    -0.1812910508D+00 E(B2PLYPD3) =    -0.13271326249968D+03

 The electronic state is 1-A.
 Alpha  occ. eigenvalues --  -14.84348 -10.67126 -10.66366  -1.03799  -0.89557
 Alpha  occ. eigenvalues --   -0.59740  -0.55464  -0.52739  -0.44783  -0.38902
 Alpha  occ. eigenvalues --   -0.38536
 Alpha virt. eigenvalues --    0.03714   0.07280   0.08018   0.10134   0.11198
 Alpha virt. eigenvalues --    0.11724   0.15405   0.16023   0.16407   0.20062
 Alpha virt. eigenvalues --    0.20219   0.25658   0.32475   0.34018   0.35158

 Mulliken charges:
               1
     1  C   -0.087003
     2  C    0.000361
     3  N   -0.211055
     4  H    0.105422
     5  H    0.091813
     6  H    0.100462
 Sum of Mulliken charges =   0.00000

 Dipole moment (field-independent basis, Debye):
    X=              4.1273    Y=             -0.0134    Z=              0.0095  Tot=              4.1274
 Quadrupole moment (field-independent basis, Debye-Ang):
   XX=            -21.1055   YY=            -17.5762   ZZ=            -17.9143
   XY=             -0.1408   XZ=             -0.0001   YZ=             -0.0659

 Normal termination of Gaussian 09 at Wed Aug 26 12:36:46 2020.
