 Gaussian 09, Revision D.01,
 Gaussian 09:  ES64L-G09RevD.01 24-Apr-2013

 --------------------
 #p B2PLYPD3/Def2QZVP
 --------------------

 ------------
 cyanomethane
 ------------
 Symbolic Z-matrix:
 Charge =  0 Multiplicity = 1

                         Standard orientation:
 ---------------------------------------------------------------------
 Center     Atomic      Atomic             Coordinates (Angstroms)
 Number     Number       Type             X           Y           Z
 ---------------------------------------------------------------------
      1          6           0        1.180432    0.002763   -0.015890
      2          6           0       -0.259352   -0.032262   -0.024673
      3          7           0       -1.435593    0.021286    0.026983
      4          1           0        1.318645   -0.575263   -0.754889
      5          1           0        1.647236   -0.402948    0.892167
      6          1           0        1.556793    1.006206   -0.082783
 ---------------------------------------------------------------------

 SCF Done:  E(RB2PLYPD3) =  -132.508618495     A.U. after   12 cycles
 E2(B2PLYPD3) =    -0.1824107840D+00 E(B2PLYPD3) =    -0.13269102927926D+03

 The electronic state is 1-A.
 Alpha  occ. eigenvalues --  -14.84762 -10.66802 -10.65502  -1.03283  -0.91346
 Alpha  occ. eigenvalues --   -0.60416  -0.57563  -0.53137  -0.44792  -0.38544
 Alpha  occ. eigenvalues --   -0.38298
 Alpha virt. eigenvalues --    0.03744   0.06879   0.09151   0.09969   0.10916
 Alpha virt. eigenvalues --    0.11505   0.14937   0.15727   0.17057   0.20137
 Alpha virt. eigenvalues --    0.20386   0.25694   0.32608   0.34489   0.35933

 Mulliken charges:
               1
     1  C   -0.091962
     2  C    0.002148
     3  N   -0.219548
     4  H    0.118924
     5  H    0.090161
     6  H    0.100278
 Sum of Mulliken charges =   0.00000

 Dipole moment (field-independent basis, Debye):
    X=              4.1499    Y=             -0.0305    Z=             -0.0275  Tot=              4.1501
 Quadrupole moment (field-independent basis, Debye-Ang):
   XX=            -20.9763   YY=            -17.6459   ZZ=            -17.8254
   XY=              0.1809   XZ=              0.3791   YZ=              0.1320

 Normal termination of Gaussian 09 at Wed Aug 26 21:30:33 2020.
