 Gaussian 09, Revision D.01,
 Gaussian 09:  ES64L-G09RevD.01 24-Apr-2013

 --------------------
 #p B2PLYPD3/Def2QZVP
 --------------------

 ------------
 cyanomethane
 ------------
 Symbolic Z-matrix:
 Charge =  0 Multiplicity = 1

                         Standard orientation:
 ---------------------------------------------------------------------
 Center     Atomic      Atomic             Coordinates (Angstroms)
 Number     Number       Type             X           Y           Z
 ---------------------------------------------------------------------
      1          6           0       -1.181473    0.008758   -0.002123
      2          6           0        0.264033   -0.014118   -0.022166
      3          7           0        1.432276    0.008649    0.005653
      4          1           0       -1.526497   -0.881310   -0.514424
      5          1           0       -1.569851    0.912348   -0.430759
      6          1           0       -1.424943   -0.059421    1.051347
 ---------------------------------------------------------------------

 SCF Done:  E(RB2PLYPD3) =  -132.532493262     A.U. after   12 cycles
 E2(B2PLYPD3) =    -0.1815960218D+00 E(B2PLYPD3) =    -0.13271408928331D+03

 The electronic state is 1-A.
 Alpha  occ. eigenvalues --  -14.84391 -10.66834 -10.66458  -1.03495  -0.89875
 Alpha  occ. eigenvalues --   -0.59347  -0.54926  -0.54453  -0.44672  -0.38673
 Alpha  occ. eigenvalues --   -0.38467
 Alpha virt. eigenvalues --    0.03791   0.07778   0.08021   0.10132   0.11192
 Alpha virt. eigenvalues --    0.11446   0.15314   0.15490   0.16402   0.20154
 Alpha virt. eigenvalues --    0.20238   0.25518   0.32693   0.34196   0.35017

 Mulliken charges:
               1
     1  C   -0.093009
     2  C   -0.000521
     3  N   -0.215468
     4  H    0.101755
     5  H    0.103942
     6  H    0.103300
 Sum of Mulliken charges =   0.00000

 Dipole moment (field-independent basis, Debye):
    X=             -4.1354    Y=             -0.0173    Z=              0.0129  Tot=              4.1355
 Quadrupole moment (field-independent basis, Debye-Ang):
   XX=            -21.2528   YY=            -17.6480   ZZ=            -17.7507
   XY=             -0.0691   XZ=              0.0354   YZ=             -0.0142

 Normal termination of Gaussian 09 at Wed Aug 26 10:21:04 2020.
