 Gaussian 09, Revision D.01,
 Gaussian 09:  ES64L-G09RevD.01 24-Apr-2013

 --------------------
 #p B2PLYPD3/Def2QZVP
 --------------------

 ------------
 cyanomethane
 ------------
 Symbolic Z-matrix:
 Charge =  0 Multiplicity = 1

                         Standard orientation:
 ---------------------------------------------------------------------
 Center     Atomic      Atomic             Coordinates (Angstroms)
 Number     Number       Type             X           Y           Z
 ---------------------------------------------------------------------
      1          6           0       -1.191285   -0.032773   -0.008730
      2          6           0        0.282655    0.047097    0.029484
      3          7           0        1.440718   -0.012267   -0.020676
      4          1           0       -1.539261   -0.606550   -0.806552
      5          1           0       -1.675508    1.026275   -0.106467
      6          1           0       -1.418480   -0.419803    0.933230
 ---------------------------------------------------------------------

 SCF Done:  E(RB2PLYPD3) =  -132.526077145     A.U. after   12 cycles
 E2(B2PLYPD3) =    -0.1811355143D+00 E(B2PLYPD3) =    -0.13270721265962D+03

 The electronic state is 1-A.
 Alpha  occ. eigenvalues --  -14.84392 -10.67200 -10.66499  -1.03865  -0.89228
 Alpha  occ. eigenvalues --   -0.59472  -0.55606  -0.52367  -0.44773  -0.39127
 Alpha  occ. eigenvalues --   -0.38814
 Alpha virt. eigenvalues --    0.03666   0.07141   0.08591   0.10128   0.11144
 Alpha virt. eigenvalues --    0.11493   0.15128   0.15702   0.16838   0.20070
 Alpha virt. eigenvalues --    0.20128   0.25236   0.31706   0.34262   0.35453

 Mulliken charges:
               1
     1  C   -0.090047
     2  C    0.000536
     3  N   -0.209246
     4  H    0.104872
     5  H    0.088335
     6  H    0.105551
 Sum of Mulliken charges =   0.00000

 Dipole moment (field-independent basis, Debye):
    X=             -4.1196    Y=             -0.0114    Z=              0.0369  Tot=              4.1198
 Quadrupole moment (field-independent basis, Debye-Ang):
   XX=            -21.0654   YY=            -17.8446   ZZ=            -17.6969
   XY=             -0.0386   XZ=              0.2025   YZ=              0.0126

 Normal termination of Gaussian 09 at Wed Aug 26 18:31:39 2020.
