 Gaussian 09, Revision D.01,
 Gaussian 09:  ES64L-G09RevD.01 24-Apr-2013

 --------------------
 #p B2PLYPD3/Def2QZVP
 --------------------

 ------------
 cyanomethane
 ------------
 Symbolic Z-matrix:
 Charge =  0 Multiplicity = 1

                         Standard orientation:
 ---------------------------------------------------------------------
 Center     Atomic      Atomic             Coordinates (Angstroms)
 Number     Number       Type             X           Y           Z
 ---------------------------------------------------------------------
      1          6           0       -1.177331    0.012366    0.004042
      2          6           0        0.276927   -0.000861    0.002098
      3          7           0        1.430913   -0.001485   -0.002211
      4          1           0       -1.529518   -0.129435    1.002913
      5          1           0       -1.550517   -0.861282   -0.604567
      6          1           0       -1.533925    0.932083   -0.419709
 ---------------------------------------------------------------------

 SCF Done:  E(RB2PLYPD3) =  -132.534418296     A.U. after   11 cycles
 E2(B2PLYPD3) =    -0.1804109506D+00 E(B2PLYPD3) =    -0.13271482924680D+03

 The electronic state is 1-A.
 Alpha  occ. eigenvalues --  -14.84114 -10.67122 -10.66162  -1.04110  -0.89329
 Alpha  occ. eigenvalues --   -0.59513  -0.54911  -0.53229  -0.44734  -0.39141
 Alpha  occ. eigenvalues --   -0.38899
 Alpha virt. eigenvalues --    0.03743   0.07726   0.08202   0.10176   0.11333
 Alpha virt. eigenvalues --    0.11623   0.15395   0.16072   0.16399   0.20061
 Alpha virt. eigenvalues --    0.20135   0.25378   0.32644   0.34041   0.35141

 Mulliken charges:
               1
     1  C   -0.088311
     2  C   -0.002138
     3  N   -0.206421
     4  H    0.099894
     5  H    0.094617
     6  H    0.102358
 Sum of Mulliken charges =   0.00000

 Dipole moment (field-independent basis, Debye):
    X=             -4.1198    Y=             -0.0035    Z=              0.0142  Tot=              4.1198
 Quadrupole moment (field-independent basis, Debye-Ang):
   XX=            -21.0941   YY=            -17.6755   ZZ=            -17.7634
   XY=              0.0379   XZ=             -0.0004   YZ=             -0.0594

 Normal termination of Gaussian 09 at Thu Aug 27 00:10:43 2020.
