 Gaussian 09, Revision D.01,
 Gaussian 09:  ES64L-G09RevD.01 24-Apr-2013

 --------------------
 #p B2PLYPD3/Def2QZVP
 --------------------

 ------------
 cyanomethane
 ------------
 Symbolic Z-matrix:
 Charge =  0 Multiplicity = 1

                         Standard orientation:
 ---------------------------------------------------------------------
 Center     Atomic      Atomic             Coordinates (Angstroms)
 Number     Number       Type             X           Y           Z
 ---------------------------------------------------------------------
      1          6           0       -1.186815    0.020421   -0.007991
      2          6           0        0.300217    0.068269   -0.000436
      3          7           0        1.427478   -0.028097    0.003798
      4          1           0       -1.565201   -0.357105    1.008393
      5          1           0       -1.437591   -0.944993   -0.687155
      6          1           0       -1.669963    0.966641   -0.297267
 ---------------------------------------------------------------------

 SCF Done:  E(RB2PLYPD3) =  -132.521368338     A.U. after   12 cycles
 E2(B2PLYPD3) =    -0.1796631253D+00 E(B2PLYPD3) =    -0.13270103146299D+03

 The electronic state is 1-A.
 Alpha  occ. eigenvalues --  -14.83537 -10.69231 -10.65738  -1.04997  -0.87312
 Alpha  occ. eigenvalues --   -0.58475  -0.54173  -0.50552  -0.44641  -0.39897
 Alpha  occ. eigenvalues --   -0.39049
 Alpha virt. eigenvalues --    0.03171   0.07179   0.08120   0.10266   0.11267
 Alpha virt. eigenvalues --    0.12338   0.14937   0.15930   0.17060   0.19735
 Alpha virt. eigenvalues --    0.20138   0.24891   0.31540   0.32340   0.34812

 Mulliken charges:
               1
     1  C   -0.114764
     2  C   -0.001172
     3  N   -0.191577
     4  H    0.096814
     5  H    0.098692
     6  H    0.112007
 Sum of Mulliken charges =   0.00000

 Dipole moment (field-independent basis, Debye):
    X=             -4.0703    Y=              0.0062    Z=              0.0334  Tot=              4.0705
 Quadrupole moment (field-independent basis, Debye-Ang):
   XX=            -21.2326   YY=            -17.4109   ZZ=            -18.0964
   XY=              0.0827   XZ=             -0.1604   YZ=             -0.0961

 Normal termination of Gaussian 09 at Wed Aug 26 22:18:35 2020.
