 Gaussian 09, Revision D.01,
 Gaussian 09:  ES64L-G09RevD.01 24-Apr-2013

 --------------------
 #p B2PLYPD3/Def2QZVP
 --------------------

 ------------
 cyanomethane
 ------------
 Symbolic Z-matrix:
 Charge =  0 Multiplicity = 1

                         Standard orientation:
 ---------------------------------------------------------------------
 Center     Atomic      Atomic             Coordinates (Angstroms)
 Number     Number       Type             X           Y           Z
 ---------------------------------------------------------------------
      1          6           0        1.185056    0.006281    0.001762
      2          6           0       -0.282374   -0.018461    0.004956
      3          7           0       -1.436298    0.009332   -0.001159
      4          1           0        1.568072   -0.071148    0.998032
      5          1           0        1.539620    0.934572   -0.452433
      6          1           0        1.530305   -0.855668   -0.577791
 ---------------------------------------------------------------------

 SCF Done:  E(RB2PLYPD3) =  -132.535414907     A.U. after   11 cycles
 E2(B2PLYPD3) =    -0.1803874520D+00 E(B2PLYPD3) =    -0.13271580235870D+03

 The electronic state is 1-A.
 Alpha  occ. eigenvalues --  -14.84166 -10.67131 -10.66256  -1.04085  -0.89145
 Alpha  occ. eigenvalues --   -0.59454  -0.54090  -0.53945  -0.44743  -0.39135
 Alpha  occ. eigenvalues --   -0.39070
 Alpha virt. eigenvalues --    0.03759   0.07960   0.08146   0.10196   0.11384
 Alpha virt. eigenvalues --    0.11410   0.15312   0.16054   0.16506   0.20077
 Alpha virt. eigenvalues --    0.20094   0.25171   0.32652   0.34494   0.34837

 Mulliken charges:
               1
     1  C   -0.086196
     2  C   -0.002411
     3  N   -0.206110
     4  H    0.097906
     5  H    0.099347
     6  H    0.097464
 Sum of Mulliken charges =   0.00000

 Dipole moment (field-independent basis, Debye):
    X=              4.1296    Y=             -0.0165    Z=              0.0082  Tot=              4.1297
 Quadrupole moment (field-independent basis, Debye-Ang):
   XX=            -21.0428   YY=            -17.6970   ZZ=            -17.7801
   XY=              0.0478   XZ=              0.0382   YZ=             -0.0070

 Normal termination of Gaussian 09 at Wed Aug 26 10:11:23 2020.
