 Gaussian 09, Revision D.01,
 Gaussian 09:  ES64L-G09RevD.01 24-Apr-2013

 --------------------
 #p B2PLYPD3/Def2QZVP
 --------------------

 ------------
 cyanomethane
 ------------
 Symbolic Z-matrix:
 Charge =  0 Multiplicity = 1

                         Standard orientation:
 ---------------------------------------------------------------------
 Center     Atomic      Atomic             Coordinates (Angstroms)
 Number     Number       Type             X           Y           Z
 ---------------------------------------------------------------------
      1          6           0       -1.166144    0.023176    0.006804
      2          6           0        0.270656    0.026498   -0.002992
      3          7           0        1.431860   -0.023941    0.002597
      4          1           0       -1.451239    1.031390   -0.140351
      5          1           0       -1.609895   -0.465888    0.929409
      6          1           0       -1.588954   -0.695958   -0.830111
 ---------------------------------------------------------------------

 SCF Done:  E(RB2PLYPD3) =  -132.524590652     A.U. after   12 cycles
 E2(B2PLYPD3) =    -0.1818128508D+00 E(B2PLYPD3) =    -0.13270640350330D+03

 The electronic state is 1-A.
 Alpha  occ. eigenvalues --  -14.84398 -10.67978 -10.66405  -1.03868  -0.89053
 Alpha  occ. eigenvalues --   -0.59566  -0.55497  -0.51235  -0.44841  -0.38930
 Alpha  occ. eigenvalues --   -0.38338
 Alpha virt. eigenvalues --    0.03415   0.06412   0.08028   0.10086   0.11129
 Alpha virt. eigenvalues --    0.11995   0.15253   0.16142   0.16548   0.19974
 Alpha virt. eigenvalues --    0.20284   0.25671   0.32136   0.33024   0.35058

 Mulliken charges:
               1
     1  C   -0.093977
     2  C    0.002010
     3  N   -0.209272
     4  H    0.110736
     5  H    0.098132
     6  H    0.092371
 Sum of Mulliken charges =   0.00000

 Dipole moment (field-independent basis, Debye):
    X=             -4.1108    Y=              0.0067    Z=              0.0067  Tot=              4.1108
 Quadrupole moment (field-independent basis, Debye-Ang):
   XX=            -21.1390   YY=            -17.5450   ZZ=            -18.0475
   XY=              0.3417   XZ=             -0.0639   YZ=             -0.0761

 Normal termination of Gaussian 09 at Wed Aug 26 11:10:24 2020.
