 Gaussian 09, Revision D.01,
 Gaussian 09:  ES64L-G09RevD.01 24-Apr-2013

 --------------------
 #p B2PLYPD3/Def2QZVP
 --------------------

 ------------
 cyanomethane
 ------------
 Symbolic Z-matrix:
 Charge =  0 Multiplicity = 1

                         Standard orientation:
 ---------------------------------------------------------------------
 Center     Atomic      Atomic             Coordinates (Angstroms)
 Number     Number       Type             X           Y           Z
 ---------------------------------------------------------------------
      1          6           0       -1.189936   -0.045183   -0.006976
      2          6           0        0.290625    0.010982   -0.058752
      3          7           0        1.439871    0.006535    0.025941
      4          1           0       -1.657211    1.071301    0.152382
      5          1           0       -1.435916   -0.532925    0.906283
      6          1           0       -1.590106   -0.378924   -0.845889
 ---------------------------------------------------------------------

 SCF Done:  E(RB2PLYPD3) =  -132.516612038     A.U. after   12 cycles
 E2(B2PLYPD3) =    -0.1805950662D+00 E(B2PLYPD3) =    -0.13269720710453D+03

 The electronic state is 1-A.
 Alpha  occ. eigenvalues --  -14.84235 -10.67380 -10.66368  -1.04229  -0.89081
 Alpha  occ. eigenvalues --   -0.59938  -0.56627  -0.50672  -0.44814  -0.39591
 Alpha  occ. eigenvalues --   -0.38761
 Alpha virt. eigenvalues --    0.03334   0.06988   0.08943   0.10258   0.10830
 Alpha virt. eigenvalues --    0.11922   0.15100   0.16235   0.16750   0.19873
 Alpha virt. eigenvalues --    0.20164   0.25034   0.30930   0.33506   0.35927

 Mulliken charges:
               1
     1  C   -0.088817
     2  C    0.001779
     3  N   -0.204373
     4  H    0.078084
     5  H    0.106494
     6  H    0.106834
 Sum of Mulliken charges =   0.00000

 Dipole moment (field-independent basis, Debye):
    X=             -4.1114    Y=             -0.0325    Z=             -0.0195  Tot=              4.1116
 Quadrupole moment (field-independent basis, Debye-Ang):
   XX=            -20.9727   YY=            -18.0103   ZZ=            -17.5868
   XY=             -0.1397   XZ=             -0.0733   YZ=              0.0038

 Normal termination of Gaussian 09 at Wed Aug 26 22:48:38 2020.
