 Gaussian 09, Revision D.01,
 Gaussian 09:  ES64L-G09RevD.01 24-Apr-2013

 --------------------
 #p B2PLYPD3/Def2QZVP
 --------------------

 ------------
 cyanomethane
 ------------
 Symbolic Z-matrix:
 Charge =  0 Multiplicity = 1

                         Standard orientation:
 ---------------------------------------------------------------------
 Center     Atomic      Atomic             Coordinates (Angstroms)
 Number     Number       Type             X           Y           Z
 ---------------------------------------------------------------------
      1          6           0        1.177383    0.005942   -0.042377
      2          6           0       -0.275703    0.036569    0.000935
      3          7           0       -1.449026   -0.023691    0.000641
      4          1           0        1.520752    0.991714    0.173012
      5          1           0        1.646907   -0.463793   -0.823317
      6          1           0        1.565441   -0.617146    0.894464
 ---------------------------------------------------------------------

 SCF Done:  E(RB2PLYPD3) =  -132.520725065     A.U. after   12 cycles
 E2(B2PLYPD3) =    -0.1826808907D+00 E(B2PLYPD3) =    -0.13270340595623D+03

 The electronic state is 1-A.
 Alpha  occ. eigenvalues --  -14.84916 -10.67284 -10.67063  -1.03428  -0.89354
 Alpha  occ. eigenvalues --   -0.61188  -0.55619  -0.51123  -0.45021  -0.38926
 Alpha  occ. eigenvalues --   -0.38171
 Alpha virt. eigenvalues --    0.03426   0.06772   0.07786   0.09935   0.11023
 Alpha virt. eigenvalues --    0.11773   0.15361   0.15687   0.17670   0.20107
 Alpha virt. eigenvalues --    0.20365   0.25453   0.31682   0.33023   0.35909

 Mulliken charges:
               1
     1  C   -0.076702
     2  C    0.009942
     3  N   -0.214510
     4  H    0.098393
     5  H    0.102839
     6  H    0.080038
 Sum of Mulliken charges =   0.00000

 Dipole moment (field-independent basis, Debye):
    X=              4.1598    Y=              0.0251    Z=              0.0167  Tot=              4.1599
 Quadrupole moment (field-independent basis, Debye-Ang):
   XX=            -20.8277   YY=            -17.8240   ZZ=            -17.9953
   XY=             -0.2197   XZ=              0.0166   YZ=              0.1767

 Normal termination of Gaussian 09 at Wed Aug 26 22:42:50 2020.
