 Gaussian 09, Revision D.01,
 Gaussian 09:  ES64L-G09RevD.01 24-Apr-2013

 --------------------
 #p B2PLYPD3/Def2QZVP
 --------------------

 ------------
 cyanomethane
 ------------
 Symbolic Z-matrix:
 Charge =  0 Multiplicity = 1

                         Standard orientation:
 ---------------------------------------------------------------------
 Center     Atomic      Atomic             Coordinates (Angstroms)
 Number     Number       Type             X           Y           Z
 ---------------------------------------------------------------------
      1          6           0        1.169787    0.000166   -0.013731
      2          6           0       -0.263397    0.002249   -0.026819
      3          7           0       -1.431251   -0.002292    0.010537
      4          1           0        1.530623    0.974307   -0.210099
      5          1           0        1.584705   -0.724886   -0.627525
      6          1           0        1.465091   -0.247864    1.007159
 ---------------------------------------------------------------------

 SCF Done:  E(RB2PLYPD3) =  -132.531008324     A.U. after   12 cycles
 E2(B2PLYPD3) =    -0.1813676673D+00 E(B2PLYPD3) =    -0.13271237599123D+03

 The electronic state is 1-A.
 Alpha  occ. eigenvalues --  -14.84469 -10.66501 -10.66087  -1.03603  -0.90391
 Alpha  occ. eigenvalues --   -0.60550  -0.55783  -0.53805  -0.44803  -0.38816
 Alpha  occ. eigenvalues --   -0.38432
 Alpha virt. eigenvalues --    0.03852   0.07805   0.08035   0.10136   0.11123
 Alpha virt. eigenvalues --    0.11621   0.15578   0.15763   0.16733   0.20130
 Alpha virt. eigenvalues --    0.20257   0.25759   0.33003   0.34058   0.35720

 Mulliken charges:
               1
     1  C   -0.073534
     2  C    0.001654
     3  N   -0.214862
     4  H    0.097614
     5  H    0.097240
     6  H    0.091889
 Sum of Mulliken charges =   0.00000

 Dipole moment (field-independent basis, Debye):
    X=              4.1554    Y=             -0.0040    Z=              0.0193  Tot=              4.1555
 Quadrupole moment (field-independent basis, Debye-Ang):
   XX=            -20.9682   YY=            -17.6301   ZZ=            -17.8360
   XY=             -0.0502   XZ=              0.0527   YZ=              0.0363

 Normal termination of Gaussian 09 at Wed Aug 26 16:15:17 2020.
