 Gaussian 09, Revision D.01,
 Gaussian 09:  ES64L-G09RevD.01 24-Apr-2013

 --------------------
 #p B2PLYPD3/Def2QZVP
 --------------------

 ------------
 cyanomethane
 ------------
 Symbolic Z-matrix:
 Charge =  0 Multiplicity = 1

                         Standard orientation:
 ---------------------------------------------------------------------
 Center     Atomic      Atomic             Coordinates (Angstroms)
 Number     Number       Type             X           Y           Z
 ---------------------------------------------------------------------
      1          6           0       -1.196454    0.005678    0.006937
      2          6           0        0.293185   -0.025369   -0.016403
      3          7           0        1.434439    0.009728    0.008044
      4          1           0       -1.501708    0.922362   -0.441098
      5          1           0       -1.544144   -0.050299    0.993333
      6          1           0       -1.575608   -0.822007   -0.551741
 ---------------------------------------------------------------------

 SCF Done:  E(RB2PLYPD3) =  -132.534565993     A.U. after   11 cycles
 E2(B2PLYPD3) =    -0.1790363352D+00 E(B2PLYPD3) =    -0.13271360232846D+03

 The electronic state is 1-A.
 Alpha  occ. eigenvalues --  -14.83807 -10.66528 -10.65920  -1.04514  -0.89351
 Alpha  occ. eigenvalues --   -0.59146  -0.54676  -0.54391  -0.44640  -0.39564
 Alpha  occ. eigenvalues --   -0.39515
 Alpha virt. eigenvalues --    0.03877   0.08670   0.08700   0.10275   0.11344
 Alpha virt. eigenvalues --    0.11389   0.15223   0.16174   0.16506   0.20004
 Alpha virt. eigenvalues --    0.20041   0.24779   0.32715   0.35024   0.35302

 Mulliken charges:
               1
     1  C   -0.080873
     2  C   -0.007469
     3  N   -0.200027
     4  H    0.097428
     5  H    0.096809
     6  H    0.094132
 Sum of Mulliken charges =   0.00000

 Dipole moment (field-independent basis, Debye):
    X=             -4.1291    Y=             -0.0119    Z=             -0.0085  Tot=              4.1292
 Quadrupole moment (field-independent basis, Debye-Ang):
   XX=            -20.9698   YY=            -17.6629   ZZ=            -17.6967
   XY=             -0.0068   XZ=             -0.0566   YZ=             -0.0127

 Normal termination of Gaussian 09 at Wed Aug 26 16:01:48 2020.
