 Gaussian 09, Revision D.01,
 Gaussian 09:  ES64L-G09RevD.01 24-Apr-2013

 --------------------
 #p B2PLYPD3/Def2QZVP
 --------------------

 ------------
 cyanomethane
 ------------
 Symbolic Z-matrix:
 Charge =  0 Multiplicity = 1

                         Standard orientation:
 ---------------------------------------------------------------------
 Center     Atomic      Atomic             Coordinates (Angstroms)
 Number     Number       Type             X           Y           Z
 ---------------------------------------------------------------------
      1          6           0        1.181069   -0.015967    0.018947
      2          6           0       -0.279487    0.029784    0.002179
      3          7           0       -1.440121   -0.007329   -0.003039
      4          1           0        1.533877   -0.316372    0.971210
      5          1           0        1.641306    1.022632   -0.276008
      6          1           0        1.496174   -0.737861   -0.800677
 ---------------------------------------------------------------------

 SCF Done:  E(RB2PLYPD3) =  -132.528174873     A.U. after   12 cycles
 E2(B2PLYPD3) =    -0.1815702492D+00 E(B2PLYPD3) =    -0.13270974512260D+03

 The electronic state is 1-A.
 Alpha  occ. eigenvalues --  -14.84406 -10.68207 -10.66512  -1.03853  -0.88541
 Alpha  occ. eigenvalues --   -0.59316  -0.54450  -0.51963  -0.44812  -0.39015
 Alpha  occ. eigenvalues --   -0.38627
 Alpha virt. eigenvalues --    0.03502   0.06913   0.07851   0.10151   0.11251
 Alpha virt. eigenvalues --    0.11658   0.15210   0.15967   0.16515   0.20057
 Alpha virt. eigenvalues --    0.20142   0.25300   0.31831   0.33294   0.34830

 Mulliken charges:
               1
     1  C   -0.098925
     2  C    0.002394
     3  N   -0.208383
     4  H    0.109069
     5  H    0.094251
     6  H    0.101594
 Sum of Mulliken charges =   0.00000

 Dipole moment (field-independent basis, Debye):
    X=              4.1170    Y=             -0.0083    Z=              0.0004  Tot=              4.1171
 Quadrupole moment (field-independent basis, Debye-Ang):
   XX=            -21.1591   YY=            -17.8821   ZZ=            -17.7229
   XY=              0.0388   XZ=             -0.0291   YZ=             -0.0261

 Normal termination of Gaussian 09 at Wed Aug 26 14:00:27 2020.
