 Gaussian 09, Revision D.01,
 Gaussian 09:  ES64L-G09RevD.01 24-Apr-2013

 --------------------
 #p B2PLYPD3/Def2QZVP
 --------------------

 ------------
 cyanomethane
 ------------
 Symbolic Z-matrix:
 Charge =  0 Multiplicity = 1

                         Standard orientation:
 ---------------------------------------------------------------------
 Center     Atomic      Atomic             Coordinates (Angstroms)
 Number     Number       Type             X           Y           Z
 ---------------------------------------------------------------------
      1          6           0        1.198330    0.022336    0.006554
      2          6           0       -0.275945   -0.026542   -0.055076
      3          7           0       -1.442599    0.007469    0.017971
      4          1           0        1.503640    1.071526   -0.217559
      5          1           0        1.651706   -0.793400   -0.695123
      6          1           0        1.408541   -0.305171    1.078016
 ---------------------------------------------------------------------

 SCF Done:  E(RB2PLYPD3) =  -132.524112909     A.U. after   12 cycles
 E2(B2PLYPD3) =    -0.1826303551D+00 E(B2PLYPD3) =    -0.13270674326443D+03

 The electronic state is 1-A.
 Alpha  occ. eigenvalues --  -14.84466 -10.69001 -10.66647  -1.03392  -0.88045
 Alpha  occ. eigenvalues --   -0.57855  -0.54301  -0.52263  -0.44617  -0.38698
 Alpha  occ. eigenvalues --   -0.38351
 Alpha virt. eigenvalues --    0.03327   0.07021   0.07575   0.10156   0.11064
 Alpha virt. eigenvalues --    0.11487   0.14802   0.15357   0.16237   0.20060
 Alpha virt. eigenvalues --    0.20193   0.25116   0.31425   0.33086   0.34355

 Mulliken charges:
               1
     1  C   -0.119519
     2  C    0.003398
     3  N   -0.213500
     4  H    0.116237
     5  H    0.102925
     6  H    0.110458
 Sum of Mulliken charges =   0.00000

 Dipole moment (field-independent basis, Debye):
    X=              4.1092    Y=             -0.0188    Z=              0.0082  Tot=              4.1093
 Quadrupole moment (field-independent basis, Debye-Ang):
   XX=            -21.5372   YY=            -17.5947   ZZ=            -17.9316
   XY=             -0.0689   XZ=             -0.0188   YZ=             -0.0595

 Normal termination of Gaussian 09 at Wed Aug 26 19:31:09 2020.
