 Gaussian 09, Revision D.01,
 Gaussian 09:  ES64L-G09RevD.01 24-Apr-2013

 --------------------
 #p B2PLYPD3/Def2QZVP
 --------------------

 ------------
 cyanomethane
 ------------
 Symbolic Z-matrix:
 Charge =  0 Multiplicity = 1

                         Standard orientation:
 ---------------------------------------------------------------------
 Center     Atomic      Atomic             Coordinates (Angstroms)
 Number     Number       Type             X           Y           Z
 ---------------------------------------------------------------------
      1          6           0       -1.188528   -0.004360    0.005024
      2          6           0        0.287508    0.025441    0.000308
      3          7           0        1.432613   -0.012710   -0.001302
      4          1           0       -1.531586   -0.372970    0.959548
      5          1           0       -1.545067   -0.674401   -0.801513
      6          1           0       -1.545513    1.009856   -0.180907
 ---------------------------------------------------------------------

 SCF Done:  E(RB2PLYPD3) =  -132.535537151     A.U. after   11 cycles
 E2(B2PLYPD3) =    -0.1797443201D+00 E(B2PLYPD3) =    -0.13271528147147D+03

 The electronic state is 1-A.
 Alpha  occ. eigenvalues --  -14.83896 -10.67406 -10.65989  -1.04386  -0.88832
 Alpha  occ. eigenvalues --   -0.58919  -0.54300  -0.53546  -0.44664  -0.39355
 Alpha  occ. eigenvalues --   -0.39262
 Alpha virt. eigenvalues --    0.03721   0.08045   0.08359   0.10218   0.11394
 Alpha virt. eigenvalues --    0.11533   0.15248   0.16055   0.16420   0.20017
 Alpha virt. eigenvalues --    0.20067   0.25026   0.32613   0.34330   0.34823

 Mulliken charges:
               1
     1  C   -0.093442
     2  C   -0.005060
     3  N   -0.201522
     4  H    0.101757
     5  H    0.098706
     6  H    0.099561
 Sum of Mulliken charges =   0.00000

 Dipole moment (field-independent basis, Debye):
    X=             -4.1114    Y=              0.0160    Z=              0.0023  Tot=              4.1114
 Quadrupole moment (field-independent basis, Debye-Ang):
   XX=            -21.1254   YY=            -17.6962   ZZ=            -17.7090
   XY=              0.0752   XZ=              0.0194   YZ=             -0.0250

 Normal termination of Gaussian 09 at Wed Aug 26 12:15:59 2020.
