 Gaussian 09, Revision D.01,
 Gaussian 09:  ES64L-G09RevD.01 24-Apr-2013

 --------------------
 #p B2PLYPD3/Def2QZVP
 --------------------

 ------------
 cyanomethane
 ------------
 Symbolic Z-matrix:
 Charge =  0 Multiplicity = 1

                         Standard orientation:
 ---------------------------------------------------------------------
 Center     Atomic      Atomic             Coordinates (Angstroms)
 Number     Number       Type             X           Y           Z
 ---------------------------------------------------------------------
      1          6           0        1.168254    0.003506   -0.018590
      2          6           0       -0.276546    0.038183    0.009854
      3          7           0       -1.430004   -0.020388   -0.005153
      4          1           0        1.557607    1.013938   -0.089648
      5          1           0        1.575282   -0.670136   -0.770528
      6          1           0        1.526884   -0.451224    0.948669
 ---------------------------------------------------------------------

 SCF Done:  E(RB2PLYPD3) =  -132.532936966     A.U. after   12 cycles
 E2(B2PLYPD3) =    -0.1807581126D+00 E(B2PLYPD3) =    -0.13271369507815D+03

 The electronic state is 1-A.
 Alpha  occ. eigenvalues --  -14.84220 -10.67320 -10.66244  -1.04146  -0.89184
 Alpha  occ. eigenvalues --   -0.59993  -0.54779  -0.52483  -0.44836  -0.39155
 Alpha  occ. eigenvalues --   -0.38743
 Alpha virt. eigenvalues --    0.03662   0.07381   0.07946   0.10090   0.11277
 Alpha virt. eigenvalues --    0.11848   0.15464   0.15923   0.16973   0.19989
 Alpha virt. eigenvalues --    0.20205   0.25646   0.32784   0.33612   0.35228

 Mulliken charges:
               1
     1  C   -0.084691
     2  C    0.001087
     3  N   -0.206057
     4  H    0.100619
     5  H    0.098523
     6  H    0.090520
 Sum of Mulliken charges =   0.00000

 Dipole moment (field-independent basis, Debye):
    X=              4.1158    Y=              0.0000    Z=              0.0270  Tot=              4.1159
 Quadrupole moment (field-independent basis, Debye-Ang):
   XX=            -20.9984   YY=            -17.5854   ZZ=            -17.9518
   XY=             -0.1850   XZ=             -0.0083   YZ=              0.0328

 Normal termination of Gaussian 09 at Wed Aug 26 14:31:00 2020.
