 Gaussian 09, Revision D.01,
 Gaussian 09:  ES64L-G09RevD.01 24-Apr-2013

 --------------------
 #p B2PLYPD3/Def2QZVP
 --------------------

 ------------
 cyanomethane
 ------------
 Symbolic Z-matrix:
 Charge =  0 Multiplicity = 1

                         Standard orientation:
 ---------------------------------------------------------------------
 Center     Atomic      Atomic             Coordinates (Angstroms)
 Number     Number       Type             X           Y           Z
 ---------------------------------------------------------------------
      1          6           0        1.177354   -0.006003   -0.027093
      2          6           0       -0.288804    0.003622    0.026564
      3          7           0       -1.432170   -0.000100   -0.008732
      4          1           0        1.577689    1.018078   -0.063459
      5          1           0        1.528438   -0.575567   -0.794824
      6          1           0        1.587762   -0.427528    0.922579
 ---------------------------------------------------------------------

 SCF Done:  E(RB2PLYPD3) =  -132.531886097     A.U. after   11 cycles
 E2(B2PLYPD3) =    -0.1795000522D+00 E(B2PLYPD3) =    -0.13271138614925D+03

 The electronic state is 1-A.
 Alpha  occ. eigenvalues --  -14.83967 -10.66819 -10.66040  -1.04571  -0.89270
 Alpha  occ. eigenvalues --   -0.60094  -0.55145  -0.52562  -0.44809  -0.39610
 Alpha  occ. eigenvalues --   -0.39213
 Alpha virt. eigenvalues --    0.03791   0.07879   0.08443   0.10188   0.11350
 Alpha virt. eigenvalues --    0.11731   0.15423   0.16193   0.17022   0.19985
 Alpha virt. eigenvalues --    0.20071   0.25271   0.32650   0.34004   0.35655

 Mulliken charges:
               1
     1  C   -0.076406
     2  C   -0.001682
     3  N   -0.200395
     4  H    0.092300
     5  H    0.100356
     6  H    0.085826
 Sum of Mulliken charges =   0.00000

 Dipole moment (field-independent basis, Debye):
    X=              4.1187    Y=             -0.0056    Z=              0.0226  Tot=              4.1188
 Quadrupole moment (field-independent basis, Debye-Ang):
   XX=            -20.8483   YY=            -17.7137   ZZ=            -17.7873
   XY=              0.0074   XZ=              0.0203   YZ=              0.0972

 Normal termination of Gaussian 09 at Wed Aug 26 14:51:31 2020.
