 Gaussian 09, Revision D.01,
 Gaussian 09:  ES64L-G09RevD.01 24-Apr-2013

 --------------------
 #p B2PLYPD3/Def2QZVP
 --------------------

 ------------
 cyanomethane
 ------------
 Symbolic Z-matrix:
 Charge =  0 Multiplicity = 1

                         Standard orientation:
 ---------------------------------------------------------------------
 Center     Atomic      Atomic             Coordinates (Angstroms)
 Number     Number       Type             X           Y           Z
 ---------------------------------------------------------------------
      1          6           0        1.176879    0.008744    0.002542
      2          6           0       -0.282134   -0.017112   -0.006223
      3          7           0       -1.438758    0.010134    0.002835
      4          1           0        1.595027    0.985387   -0.312220
      5          1           0        1.548350   -0.777367   -0.690127
      6          1           0        1.559465   -0.228748    1.004590
 ---------------------------------------------------------------------

 SCF Done:  E(RB2PLYPD3) =  -132.534239229     A.U. after   12 cycles
 E2(B2PLYPD3) =    -0.1809372142D+00 E(B2PLYPD3) =    -0.13271517644291D+03

 The electronic state is 1-A.
 Alpha  occ. eigenvalues --  -14.84333 -10.67648 -10.66419  -1.04052  -0.88781
 Alpha  occ. eigenvalues --   -0.59757  -0.53481  -0.53288  -0.44857  -0.39049
 Alpha  occ. eigenvalues --   -0.38952
 Alpha virt. eigenvalues --    0.03655   0.07492   0.07745   0.10149   0.11460
 Alpha virt. eigenvalues --    0.11500   0.15377   0.16044   0.16812   0.20079
 Alpha virt. eigenvalues --    0.20108   0.25348   0.32543   0.34173   0.34596

 Mulliken charges:
               1
     1  C   -0.086178
     2  C    0.000830
     3  N   -0.206231
     4  H    0.098439
     5  H    0.095784
     6  H    0.097355
 Sum of Mulliken charges =   0.00000

 Dipole moment (field-independent basis, Debye):
    X=              4.1290    Y=             -0.0234    Z=              0.0010  Tot=              4.1291
 Quadrupole moment (field-independent basis, Debye-Ang):
   XX=            -20.9745   YY=            -17.7755   ZZ=            -17.8353
   XY=              0.0687   XZ=              0.0246   YZ=             -0.0132

 Normal termination of Gaussian 09 at Wed Aug 26 09:50:03 2020.
