 Gaussian 09, Revision D.01,
 Gaussian 09:  ES64L-G09RevD.01 24-Apr-2013

 --------------------
 #p B2PLYPD3/Def2QZVP
 --------------------

 ------------
 cyanomethane
 ------------
 Symbolic Z-matrix:
 Charge =  0 Multiplicity = 1

                         Standard orientation:
 ---------------------------------------------------------------------
 Center     Atomic      Atomic             Coordinates (Angstroms)
 Number     Number       Type             X           Y           Z
 ---------------------------------------------------------------------
      1          6           0        1.161224    0.005154   -0.042214
      2          6           0       -0.285812   -0.049918    0.000447
      3          7           0       -1.417380    0.030442    0.005687
      4          1           0        1.613195    1.068910   -0.053467
      5          1           0        1.507709   -0.621634   -0.700096
      6          1           0        1.548281   -0.391788    0.964361
 ---------------------------------------------------------------------

 SCF Done:  E(RB2PLYPD3) =  -132.517765136     A.U. after   12 cycles
 E2(B2PLYPD3) =    -0.1791492195D+00 E(B2PLYPD3) =    -0.13269691435508D+03

 The electronic state is 1-A.
 Alpha  occ. eigenvalues --  -14.83670 -10.66945 -10.65650  -1.05008  -0.89554
 Alpha  occ. eigenvalues --   -0.60325  -0.55858  -0.51334  -0.44797  -0.39882
 Alpha  occ. eigenvalues --   -0.39010
 Alpha virt. eigenvalues --    0.03468   0.07061   0.09144   0.10130   0.11273
 Alpha virt. eigenvalues --    0.12247   0.15409   0.15826   0.17806   0.19926
 Alpha virt. eigenvalues --    0.20169   0.25751   0.32396   0.33032   0.35540

 Mulliken charges:
               1
     1  C   -0.088419
     2  C    0.000177
     3  N   -0.195442
     4  H    0.098814
     5  H    0.105430
     6  H    0.079439
 Sum of Mulliken charges =   0.00000

 Dipole moment (field-independent basis, Debye):
    X=              4.0798    Y=             -0.0788    Z=              0.0345  Tot=              4.0807
 Quadrupole moment (field-independent basis, Debye-Ang):
   XX=            -20.8808   YY=            -17.5284   ZZ=            -17.9045
   XY=              0.1767   XZ=              0.1648   YZ=              0.1739

 Normal termination of Gaussian 09 at Wed Aug 26 21:23:08 2020.
