 Gaussian 09, Revision D.01,
 Gaussian 09:  ES64L-G09RevD.01 24-Apr-2013

 --------------------
 #p B2PLYPD3/Def2QZVP
 --------------------

 ------------
 cyanomethane
 ------------
 Symbolic Z-matrix:
 Charge =  0 Multiplicity = 1

                         Standard orientation:
 ---------------------------------------------------------------------
 Center     Atomic      Atomic             Coordinates (Angstroms)
 Number     Number       Type             X           Y           Z
 ---------------------------------------------------------------------
      1          6           0        1.169831   -0.005515    0.000711
      2          6           0       -0.274506    0.017874   -0.001131
      3          7           0       -1.430691   -0.009933   -0.002012
      4          1           0        1.535977    1.039333   -0.100840
      5          1           0        1.584803   -0.617422   -0.811500
      6          1           0        1.522110   -0.426535    0.928943
 ---------------------------------------------------------------------

 SCF Done:  E(RB2PLYPD3) =  -132.534620335     A.U. after   12 cycles
 E2(B2PLYPD3) =    -0.1807334539D+00 E(B2PLYPD3) =    -0.13271535378845D+03

 The electronic state is 1-A.
 Alpha  occ. eigenvalues --  -14.84227 -10.67195 -10.66252  -1.04065  -0.89318
 Alpha  occ. eigenvalues --   -0.59910  -0.54034  -0.53595  -0.44807  -0.38939
 Alpha  occ. eigenvalues --   -0.38917
 Alpha virt. eigenvalues --    0.03733   0.07579   0.07879   0.10133   0.11488
 Alpha virt. eigenvalues --    0.11565   0.15473   0.16070   0.16592   0.20080
 Alpha virt. eigenvalues --    0.20142   0.25591   0.32748   0.34370   0.34640

 Mulliken charges:
               1
     1  C   -0.085653
     2  C   -0.000045
     3  N   -0.207249
     4  H    0.097414
     5  H    0.096849
     6  H    0.098684
 Sum of Mulliken charges =   0.00000

 Dipole moment (field-independent basis, Debye):
    X=              4.1211    Y=              0.0013    Z=              0.0127  Tot=              4.1212
 Quadrupole moment (field-independent basis, Debye-Ang):
   XX=            -21.0289   YY=            -17.6879   ZZ=            -17.8156
   XY=             -0.1059   XZ=             -0.0323   YZ=             -0.0123

 Normal termination of Gaussian 09 at Thu Aug 27 00:05:28 2020.
