 Gaussian 09, Revision D.01,
 Gaussian 09:  ES64L-G09RevD.01 24-Apr-2013

 --------------------
 #p B2PLYPD3/Def2QZVP
 --------------------

 ------------
 cyanomethane
 ------------
 Symbolic Z-matrix:
 Charge =  0 Multiplicity = 1

                         Standard orientation:
 ---------------------------------------------------------------------
 Center     Atomic      Atomic             Coordinates (Angstroms)
 Number     Number       Type             X           Y           Z
 ---------------------------------------------------------------------
      1          6           0        1.179258   -0.007488    0.002933
      2          6           0       -0.279503    0.002421   -0.019145
      3          7           0       -1.428072   -0.003000    0.012090
      4          1           0        1.563444    0.035439    1.037870
      5          1           0        1.488316    0.916135   -0.527993
      6          1           0        1.546214   -0.900171   -0.497233
 ---------------------------------------------------------------------

 SCF Done:  E(RB2PLYPD3) =  -132.534765619     A.U. after   12 cycles
 E2(B2PLYPD3) =    -0.1801337667D+00 E(B2PLYPD3) =    -0.13271489938545D+03

 The electronic state is 1-A.
 Alpha  occ. eigenvalues --  -14.83947 -10.67475 -10.66004  -1.04281  -0.89010
 Alpha  occ. eigenvalues --   -0.59118  -0.54291  -0.53446  -0.44679  -0.39191
 Alpha  occ. eigenvalues --   -0.39030
 Alpha virt. eigenvalues --    0.03699   0.07792   0.08170   0.10175   0.11454
 Alpha virt. eigenvalues --    0.11627   0.15335   0.15793   0.16578   0.20054
 Alpha virt. eigenvalues --    0.20103   0.25323   0.32700   0.34033   0.34732

 Mulliken charges:
               1
     1  C   -0.096534
     2  C   -0.002901
     3  N   -0.203809
     4  H    0.100011
     5  H    0.100333
     6  H    0.102901
 Sum of Mulliken charges =   0.00000

 Dipole moment (field-independent basis, Debye):
    X=              4.1031    Y=              0.0107    Z=             -0.0144  Tot=              4.1031
 Quadrupole moment (field-independent basis, Debye-Ang):
   XX=            -21.1852   YY=            -17.6541   ZZ=            -17.7432
   XY=             -0.0463   XZ=              0.1188   YZ=              0.0225

 Normal termination of Gaussian 09 at Thu Aug 27 01:11:11 2020.
