 Gaussian 09, Revision D.01,
 Gaussian 09:  ES64L-G09RevD.01 24-Apr-2013

 --------------------
 #p B2PLYPD3/Def2QZVP
 --------------------

 ------------
 cyanomethane
 ------------
 Symbolic Z-matrix:
 Charge =  0 Multiplicity = 1

                         Standard orientation:
 ---------------------------------------------------------------------
 Center     Atomic      Atomic             Coordinates (Angstroms)
 Number     Number       Type             X           Y           Z
 ---------------------------------------------------------------------
      1          6           0       -1.168100   -0.024730    0.008446
      2          6           0        0.305668    0.052023   -0.012907
      3          7           0        1.430600   -0.022569    0.008099
      4          1           0       -1.638692   -0.137743    1.002884
      5          1           0       -1.568084   -0.817710   -0.636839
      6          1           0       -1.632835    0.949682   -0.395972
 ---------------------------------------------------------------------

 SCF Done:  E(RB2PLYPD3) =  -132.530117992     A.U. after   12 cycles
 E2(B2PLYPD3) =    -0.1788579093D+00 E(B2PLYPD3) =    -0.13270897590136D+03

 The electronic state is 1-A.
 Alpha  occ. eigenvalues --  -14.83720 -10.68022 -10.65833  -1.05370  -0.87941
 Alpha  occ. eigenvalues --   -0.60083  -0.53138  -0.51671  -0.44937  -0.40010
 Alpha  occ. eigenvalues --   -0.39669
 Alpha virt. eigenvalues --    0.03571   0.07642   0.07925   0.10146   0.11714
 Alpha virt. eigenvalues --    0.11895   0.15439   0.16353   0.17749   0.19861
 Alpha virt. eigenvalues --    0.20023   0.25336   0.32360   0.33919   0.34969

 Mulliken charges:
               1
     1  C   -0.080947
     2  C    0.000562
     3  N   -0.188303
     4  H    0.092526
     5  H    0.094445
     6  H    0.081716
 Sum of Mulliken charges =   0.00000

 Dipole moment (field-independent basis, Debye):
    X=             -4.0813    Y=              0.0336    Z=             -0.0140  Tot=              4.0814
 Quadrupole moment (field-independent basis, Debye-Ang):
   XX=            -20.6771   YY=            -17.8650   ZZ=            -17.8237
   XY=              0.1033   XZ=             -0.0823   YZ=              0.0629

 Normal termination of Gaussian 09 at Wed Aug 26 23:38:57 2020.
