 Gaussian 09, Revision D.01,
 Gaussian 09:  ES64L-G09RevD.01 24-Apr-2013

 --------------------
 #p B2PLYPD3/Def2QZVP
 --------------------

 ------------
 cyanomethane
 ------------
 Symbolic Z-matrix:
 Charge =  0 Multiplicity = 1

                         Standard orientation:
 ---------------------------------------------------------------------
 Center     Atomic      Atomic             Coordinates (Angstroms)
 Number     Number       Type             X           Y           Z
 ---------------------------------------------------------------------
      1          6           0        1.177575    0.000443   -0.005630
      2          6           0       -0.271522    0.000383    0.021914
      3          7           0       -1.429848   -0.000688   -0.009107
      4          1           0        1.547791   -0.036595    1.016324
      5          1           0        1.508060    0.923835   -0.494079
      6          1           0        1.516767   -0.887380   -0.556200
 ---------------------------------------------------------------------

 SCF Done:  E(RB2PLYPD3) =  -132.534844920     A.U. after   11 cycles
 E2(B2PLYPD3) =    -0.1808534618D+00 E(B2PLYPD3) =    -0.13271569838133D+03

 The electronic state is 1-A.
 Alpha  occ. eigenvalues --  -14.84183 -10.67223 -10.66220  -1.03901  -0.89379
 Alpha  occ. eigenvalues --   -0.59235  -0.54286  -0.54104  -0.44697  -0.38849
 Alpha  occ. eigenvalues --   -0.38836
 Alpha virt. eigenvalues --    0.03729   0.07809   0.07944   0.10158   0.11429
 Alpha virt. eigenvalues --    0.11455   0.15361   0.15955   0.16179   0.20125
 Alpha virt. eigenvalues --    0.20131   0.25474   0.32738   0.34424   0.34464

 Mulliken charges:
               1
     1  C   -0.094049
     2  C   -0.001674
     3  N   -0.209347
     4  H    0.100045
     5  H    0.102765
     6  H    0.102260
 Sum of Mulliken charges =   0.00000

 Dipole moment (field-independent basis, Debye):
    X=              4.1170    Y=              0.0006    Z=              0.0173  Tot=              4.1170
 Quadrupole moment (field-independent basis, Debye-Ang):
   XX=            -21.2094   YY=            -17.6633   ZZ=            -17.7426
   XY=             -0.0131   XZ=             -0.0045   YZ=             -0.0031

 Normal termination of Gaussian 09 at Thu Aug 27 00:08:08 2020.
