 Gaussian 09, Revision D.01,
 Gaussian 09:  ES64L-G09RevD.01 24-Apr-2013

 --------------------
 #p B2PLYPD3/Def2QZVP
 --------------------

 ------------
 cyanomethane
 ------------
 Symbolic Z-matrix:
 Charge =  0 Multiplicity = 1

                         Standard orientation:
 ---------------------------------------------------------------------
 Center     Atomic      Atomic             Coordinates (Angstroms)
 Number     Number       Type             X           Y           Z
 ---------------------------------------------------------------------
      1          6           0        1.196395    0.002515   -0.022130
      2          6           0       -0.298688   -0.058228    0.000820
      3          7           0       -1.433908    0.023893    0.007715
      4          1           0        1.630865    0.027362    1.073105
      5          1           0        1.434000    0.976943   -0.477716
      6          1           0        1.586252   -0.837282   -0.521531
 ---------------------------------------------------------------------

 SCF Done:  E(RB2PLYPD3) =  -132.528405245     A.U. after   12 cycles
 E2(B2PLYPD3) =    -0.1794871466D+00 E(B2PLYPD3) =    -0.13270789239193D+03

 The electronic state is 1-A.
 Alpha  occ. eigenvalues --  -14.83730 -10.68119 -10.65877  -1.04685  -0.88133
 Alpha  occ. eigenvalues --   -0.58489  -0.54968  -0.51761  -0.44630  -0.39732
 Alpha  occ. eigenvalues --   -0.39306
 Alpha virt. eigenvalues --    0.03465   0.07530   0.08785   0.10289   0.11188
 Alpha virt. eigenvalues --    0.11829   0.14974   0.16188   0.16425   0.19870
 Alpha virt. eigenvalues --    0.20066   0.24802   0.31848   0.33585   0.35064

 Mulliken charges:
               1
     1  C   -0.102342
     2  C   -0.005603
     3  N   -0.196346
     4  H    0.091292
     5  H    0.106956
     6  H    0.106043
 Sum of Mulliken charges =   0.00000

 Dipole moment (field-independent basis, Debye):
    X=              4.0946    Y=             -0.0251    Z=             -0.0227  Tot=              4.0947
 Quadrupole moment (field-independent basis, Debye-Ang):
   XX=            -21.1520   YY=            -17.6079   ZZ=            -17.8406
   XY=              0.0406   XZ=              0.1315   YZ=              0.0346

 Normal termination of Gaussian 09 at Wed Aug 26 22:31:07 2020.
