 Gaussian 09, Revision D.01,
 Gaussian 09:  ES64L-G09RevD.01 24-Apr-2013

 --------------------
 #p B2PLYPD3/Def2QZVP
 --------------------

 ------------
 cyanomethane
 ------------
 Symbolic Z-matrix:
 Charge =  0 Multiplicity = 1

                         Standard orientation:
 ---------------------------------------------------------------------
 Center     Atomic      Atomic             Coordinates (Angstroms)
 Number     Number       Type             X           Y           Z
 ---------------------------------------------------------------------
      1          6           0        1.175433    0.010181    0.001383
      2          6           0       -0.272638   -0.007071   -0.018855
      3          7           0       -1.430193    0.001122    0.006647
      4          1           0        1.516765    1.046213   -0.104788
      5          1           0        1.576010   -0.646473   -0.809255
      6          1           0        1.501805   -0.426255    0.972346
 ---------------------------------------------------------------------

 SCF Done:  E(RB2PLYPD3) =  -132.533666531     A.U. after   12 cycles
 E2(B2PLYPD3) =    -0.1809950396D+00 E(B2PLYPD3) =    -0.13271466157081D+03

 The electronic state is 1-A.
 Alpha  occ. eigenvalues --  -14.84181 -10.67662 -10.66225  -1.03949  -0.89059
 Alpha  occ. eigenvalues --   -0.59147  -0.54389  -0.53242  -0.44717  -0.38919
 Alpha  occ. eigenvalues --   -0.38738
 Alpha virt. eigenvalues --    0.03652   0.07560   0.07785   0.10152   0.11393
 Alpha virt. eigenvalues --    0.11622   0.15333   0.15927   0.16273   0.20083
 Alpha virt. eigenvalues --    0.20154   0.25485   0.32573   0.33868   0.34592

 Mulliken charges:
               1
     1  C   -0.098154
     2  C   -0.000581
     3  N   -0.208347
     4  H    0.105897
     5  H    0.099744
     6  H    0.101441
 Sum of Mulliken charges =   0.00000

 Dipole moment (field-independent basis, Debye):
    X=              4.1111    Y=             -0.0118    Z=              0.0012  Tot=              4.1112
 Quadrupole moment (field-independent basis, Debye-Ang):
   XX=            -21.2320   YY=            -17.6333   ZZ=            -17.8129
   XY=             -0.0497   XZ=              0.0068   YZ=             -0.0114

 Normal termination of Gaussian 09 at Thu Aug 27 00:10:40 2020.
