 Gaussian 09, Revision D.01,
 Gaussian 09:  ES64L-G09RevD.01 24-Apr-2013

 --------------------
 #p B2PLYPD3/Def2QZVP
 --------------------

 ------------
 cyanomethane
 ------------
 Symbolic Z-matrix:
 Charge =  0 Multiplicity = 1

                         Standard orientation:
 ---------------------------------------------------------------------
 Center     Atomic      Atomic             Coordinates (Angstroms)
 Number     Number       Type             X           Y           Z
 ---------------------------------------------------------------------
      1          6           0       -1.178590   -0.006481   -0.003424
      2          6           0        0.279410    0.017392    0.002509
      3          7           0        1.429095   -0.004804    0.001194
      4          1           0       -1.561048   -0.108095    1.001340
      5          1           0       -1.478943   -0.848282   -0.584555
      6          1           0       -1.568591    0.924541   -0.419648
 ---------------------------------------------------------------------

 SCF Done:  E(RB2PLYPD3) =  -132.535718133     A.U. after   11 cycles
 E2(B2PLYPD3) =    -0.1799144212D+00 E(B2PLYPD3) =    -0.13271563255431D+03

 The electronic state is 1-A.
 Alpha  occ. eigenvalues --  -14.83995 -10.66813 -10.66043  -1.04266  -0.89469
 Alpha  occ. eigenvalues --   -0.59536  -0.54721  -0.53817  -0.44710  -0.39196
 Alpha  occ. eigenvalues --   -0.39135
 Alpha virt. eigenvalues --    0.03823   0.08042   0.08311   0.10210   0.11441
 Alpha virt. eigenvalues --    0.11525   0.15388   0.16205   0.16357   0.20057
 Alpha virt. eigenvalues --    0.20101   0.25339   0.32818   0.34649   0.34957

 Mulliken charges:
               1
     1  C   -0.084873
     2  C   -0.003581
     3  N   -0.204603
     4  H    0.095674
     5  H    0.100925
     6  H    0.096458
 Sum of Mulliken charges =   0.00000

 Dipole moment (field-independent basis, Debye):
    X=             -4.1197    Y=              0.0001    Z=              0.0055  Tot=              4.1197
 Quadrupole moment (field-independent basis, Debye-Ang):
   XX=            -21.0424   YY=            -17.6477   ZZ=            -17.7540
   XY=             -0.0235   XZ=             -0.0642   YZ=              0.0256

 Normal termination of Gaussian 09 at Wed Aug 26 10:19:55 2020.
