 Gaussian 09, Revision D.01,
 Gaussian 09:  ES64L-G09RevD.01 24-Apr-2013

 --------------------
 #p B2PLYPD3/Def2QZVP
 --------------------

 ------------
 cyanomethane
 ------------
 Symbolic Z-matrix:
 Charge =  0 Multiplicity = 1

                         Standard orientation:
 ---------------------------------------------------------------------
 Center     Atomic      Atomic             Coordinates (Angstroms)
 Number     Number       Type             X           Y           Z
 ---------------------------------------------------------------------
      1          6           0        1.169284    0.009704   -0.001856
      2          6           0       -0.277319    0.013749    0.011362
      3          7           0       -1.432299   -0.009937   -0.007196
      4          1           0        1.536429    1.010589   -0.014629
      5          1           0        1.586011   -0.550904   -0.881419
      6          1           0        1.551860   -0.530842    0.889385
 ---------------------------------------------------------------------

 SCF Done:  E(RB2PLYPD3) =  -132.533779516     A.U. after   11 cycles
 E2(B2PLYPD3) =    -0.1807104434D+00 E(B2PLYPD3) =    -0.13271448995975D+03

 The electronic state is 1-A.
 Alpha  occ. eigenvalues --  -14.84243 -10.67313 -10.66273  -1.04131  -0.89177
 Alpha  occ. eigenvalues --   -0.59957  -0.54557  -0.52733  -0.44843  -0.39105
 Alpha  occ. eigenvalues --   -0.38851
 Alpha virt. eigenvalues --    0.03677   0.07342   0.08025   0.10145   0.11358
 Alpha virt. eigenvalues --    0.11716   0.15475   0.16232   0.16606   0.20039
 Alpha virt. eigenvalues --    0.20152   0.25550   0.32740   0.33951   0.34947

 Mulliken charges:
               1
     1  C   -0.083486
     2  C   -0.000024
     3  N   -0.206025
     4  H    0.100828
     5  H    0.093860
     6  H    0.094846
 Sum of Mulliken charges =   0.00000

 Dipole moment (field-independent basis, Debye):
    X=              4.1223    Y=              0.0067    Z=              0.0138  Tot=              4.1224
 Quadrupole moment (field-independent basis, Debye-Ang):
   XX=            -20.9733   YY=            -17.6906   ZZ=            -17.8602
   XY=             -0.1069   XZ=             -0.0575   YZ=             -0.0138

 Normal termination of Gaussian 09 at Wed Aug 26 23:57:10 2020.
