 Gaussian 09, Revision D.01,
 Gaussian 09:  ES64L-G09RevD.01 24-Apr-2013

 --------------------
 #p B2PLYPD3/Def2QZVP
 --------------------

 ------------
 cyanomethane
 ------------
 Symbolic Z-matrix:
 Charge =  0 Multiplicity = 1

                         Standard orientation:
 ---------------------------------------------------------------------
 Center     Atomic      Atomic             Coordinates (Angstroms)
 Number     Number       Type             X           Y           Z
 ---------------------------------------------------------------------
      1          6           0        1.176363   -0.033761    0.005845
      2          6           0       -0.302581    0.014537    0.046688
      3          7           0       -1.443493    0.001830   -0.023729
      4          1           0        1.689168    1.053956   -0.228101
      5          1           0        1.548871   -0.637477   -0.811757
      6          1           0        1.623722   -0.313947    0.890760
 ---------------------------------------------------------------------

 SCF Done:  E(RB2PLYPD3) =  -132.521876089     A.U. after   12 cycles
 E2(B2PLYPD3) =    -0.1801385126D+00 E(B2PLYPD3) =    -0.13270201460127D+03

 The electronic state is 1-A.
 Alpha  occ. eigenvalues --  -14.84230 -10.67897 -10.66390  -1.04763  -0.88306
 Alpha  occ. eigenvalues --   -0.60501  -0.54673  -0.50420  -0.45035  -0.39852
 Alpha  occ. eigenvalues --   -0.39158
 Alpha virt. eigenvalues --    0.03297   0.06818   0.08443   0.10193   0.11221
 Alpha virt. eigenvalues --    0.11976   0.15316   0.16790   0.17220   0.19881
 Alpha virt. eigenvalues --    0.20089   0.25078   0.31160   0.33530   0.35568

 Mulliken charges:
               1
     1  C   -0.077324
     2  C    0.005147
     3  N   -0.197157
     4  H    0.075893
     5  H    0.096142
     6  H    0.097299
 Sum of Mulliken charges =   0.00000

 Dipole moment (field-independent basis, Debye):
    X=              4.1068    Y=             -0.0438    Z=              0.0397  Tot=              4.1072
 Quadrupole moment (field-independent basis, Debye-Ang):
   XX=            -20.6437   YY=            -18.0118   ZZ=            -17.8118
   XY=              0.0343   XZ=             -0.1075   YZ=              0.0349

 Normal termination of Gaussian 09 at Wed Aug 26 23:25:51 2020.
