 Gaussian 09, Revision D.01,
 Gaussian 09:  ES64L-G09RevD.01 24-Apr-2013

 --------------------
 #p B2PLYPD3/Def2QZVP
 --------------------

 ------------
 cyanomethane
 ------------
 Symbolic Z-matrix:
 Charge =  0 Multiplicity = 1

                         Standard orientation:
 ---------------------------------------------------------------------
 Center     Atomic      Atomic             Coordinates (Angstroms)
 Number     Number       Type             X           Y           Z
 ---------------------------------------------------------------------
      1          6           0       -1.169606    0.004272    0.000895
      2          6           0        0.274885    0.006612   -0.004123
      3          7           0        1.432409   -0.007800    0.003487
      4          1           0       -1.500260    1.027698   -0.024661
      5          1           0       -1.595470   -0.498197    0.863478
      6          1           0       -1.562802   -0.540210   -0.843851
 ---------------------------------------------------------------------

 SCF Done:  E(RB2PLYPD3) =  -132.534585043     A.U. after   11 cycles
 E2(B2PLYPD3) =    -0.1806508477D+00 E(B2PLYPD3) =    -0.13271523589024D+03

 The electronic state is 1-A.
 Alpha  occ. eigenvalues --  -14.84285 -10.66702 -10.66314  -1.04040  -0.89651
 Alpha  occ. eigenvalues --   -0.60367  -0.54726  -0.53361  -0.44841  -0.39019
 Alpha  occ. eigenvalues --   -0.38894
 Alpha virt. eigenvalues --    0.03810   0.07649   0.08066   0.10152   0.11354
 Alpha virt. eigenvalues --    0.11616   0.15479   0.16276   0.16629   0.20061
 Alpha virt. eigenvalues --    0.20177   0.25585   0.32910   0.34641   0.34913

 Mulliken charges:
               1
     1  C   -0.075208
     2  C    0.000189
     3  N   -0.208054
     4  H    0.098135
     5  H    0.092047
     6  H    0.092891
 Sum of Mulliken charges =   0.00000

 Dipole moment (field-independent basis, Debye):
    X=             -4.1378    Y=             -0.0049    Z=             -0.0072  Tot=              4.1378
 Quadrupole moment (field-independent basis, Debye-Ang):
   XX=            -20.8983   YY=            -17.6399   ZZ=            -17.8897
   XY=              0.1534   XZ=             -0.0384   YZ=              0.0050

 Normal termination of Gaussian 09 at Thu Aug 27 00:14:09 2020.
