 Gaussian 09, Revision D.01,
 Gaussian 09:  ES64L-G09RevD.01 24-Apr-2013

 --------------------
 #p B2PLYPD3/Def2QZVP
 --------------------

 ------------
 cyanomethane
 ------------
 Symbolic Z-matrix:
 Charge =  0 Multiplicity = 1

                         Standard orientation:
 ---------------------------------------------------------------------
 Center     Atomic      Atomic             Coordinates (Angstroms)
 Number     Number       Type             X           Y           Z
 ---------------------------------------------------------------------
      1          6           0        1.176504    0.001309   -0.005166
      2          6           0       -0.267863    0.042449    0.023368
      3          7           0       -1.447084   -0.022555   -0.008390
      4          1           0        1.604453   -0.254759    0.955303
      5          1           0        1.541685    0.929574   -0.320557
      6          1           0        1.531605   -0.779474   -0.685229
 ---------------------------------------------------------------------

 SCF Done:  E(RB2PLYPD3) =  -132.530117184     A.U. after   11 cycles
 E2(B2PLYPD3) =    -0.1827518661D+00 E(B2PLYPD3) =    -0.13271286904994D+03

 The electronic state is 1-A.
 Alpha  occ. eigenvalues --  -14.85009 -10.67069 -10.66612  -1.03144  -0.89810
 Alpha  occ. eigenvalues --   -0.60630  -0.55081  -0.53324  -0.44971  -0.38545
 Alpha  occ. eigenvalues --   -0.38344
 Alpha virt. eigenvalues --    0.03696   0.07073   0.07768   0.10080   0.11016
 Alpha virt. eigenvalues --    0.11436   0.15481   0.16199   0.16499   0.20133
 Alpha virt. eigenvalues --    0.20272   0.25670   0.32665   0.34383   0.35192

 Mulliken charges:
               1
     1  C   -0.069881
     2  C    0.004436
     3  N   -0.217838
     4  H    0.091958
     5  H    0.097475
     6  H    0.093850
 Sum of Mulliken charges =   0.00000

 Dipole moment (field-independent basis, Debye):
    X=              4.1713    Y=              0.0153    Z=              0.0074  Tot=              4.1713
 Quadrupole moment (field-independent basis, Debye-Ang):
   XX=            -20.8575   YY=            -17.7763   ZZ=            -17.9214
   XY=             -0.1516   XZ=              0.0077   YZ=             -0.0417

 Normal termination of Gaussian 09 at Wed Aug 26 15:55:33 2020.
