 Gaussian 09, Revision D.01,
 Gaussian 09:  ES64L-G09RevD.01 24-Apr-2013

 --------------------
 #p B2PLYPD3/Def2QZVP
 --------------------

 ------------
 cyanomethane
 ------------
 Symbolic Z-matrix:
 Charge =  0 Multiplicity = 1

                         Standard orientation:
 ---------------------------------------------------------------------
 Center     Atomic      Atomic             Coordinates (Angstroms)
 Number     Number       Type             X           Y           Z
 ---------------------------------------------------------------------
      1          6           0       -1.169377   -0.000306   -0.028184
      2          6           0        0.268594    0.020051    0.063792
      3          7           0        1.443855   -0.015231   -0.033998
      4          1           0       -1.515835    0.953443   -0.234200
      5          1           0       -1.530146   -0.270177    0.921676
      6          1           0       -1.656304   -0.695120   -0.663139
 ---------------------------------------------------------------------

 SCF Done:  E(RB2PLYPD3) =  -132.524156156     A.U. after   13 cycles
 E2(B2PLYPD3) =    -0.1825898457D+00 E(B2PLYPD3) =    -0.13270674600124D+03

 The electronic state is 1-A.
 Alpha  occ. eigenvalues --  -14.85053 -10.67081 -10.65716  -1.03306  -0.90458
 Alpha  occ. eigenvalues --   -0.61607  -0.55349  -0.53449  -0.45074  -0.38674
 Alpha  occ. eigenvalues --   -0.38388
 Alpha virt. eigenvalues --    0.03712   0.06988   0.08080   0.09907   0.11077
 Alpha virt. eigenvalues --    0.11556   0.15495   0.15710   0.17723   0.20170
 Alpha virt. eigenvalues --    0.20483   0.26020   0.33037   0.34648   0.35575

 Mulliken charges:
               1
     1  C   -0.057568
     2  C    0.010645
     3  N   -0.217121
     4  H    0.091885
     5  H    0.083734
     6  H    0.088425
 Sum of Mulliken charges =   0.00000

 Dipole moment (field-independent basis, Debye):
    X=             -4.1711    Y=              0.0103    Z=              0.0807  Tot=              4.1719
 Quadrupole moment (field-independent basis, Debye-Ang):
   XX=            -20.6112   YY=            -17.7491   ZZ=            -17.9820
   XY=              0.1809   XZ=              0.1393   YZ=             -0.0285

 Normal termination of Gaussian 09 at Wed Aug 26 18:40:33 2020.
