 Gaussian 09, Revision D.01,
 Gaussian 09:  ES64L-G09RevD.01 24-Apr-2013

 --------------------
 #p B2PLYPD3/Def2QZVP
 --------------------

 ------------
 cyanomethane
 ------------
 Symbolic Z-matrix:
 Charge =  0 Multiplicity = 1

                         Standard orientation:
 ---------------------------------------------------------------------
 Center     Atomic      Atomic             Coordinates (Angstroms)
 Number     Number       Type             X           Y           Z
 ---------------------------------------------------------------------
      1          6           0        1.183705   -0.000600   -0.004754
      2          6           0       -0.276290   -0.001543   -0.020449
      3          7           0       -1.435674   -0.001139    0.005970
      4          1           0        1.524303    1.006085   -0.176289
      5          1           0        1.607445   -0.683535   -0.689886
      6          1           0        1.473475   -0.301719    0.975605
 ---------------------------------------------------------------------

 SCF Done:  E(RB2PLYPD3) =  -132.533962114     A.U. after   12 cycles
 E2(B2PLYPD3) =    -0.1806226257D+00 E(B2PLYPD3) =    -0.13271458474006D+03

 The electronic state is 1-A.
 Alpha  occ. eigenvalues --  -14.84275 -10.66482 -10.66358  -1.03879  -0.89790
 Alpha  occ. eigenvalues --   -0.59852  -0.54833  -0.54252  -0.44745  -0.39052
 Alpha  occ. eigenvalues --   -0.38873
 Alpha virt. eigenvalues --    0.03861   0.08104   0.08217   0.10209   0.11213
 Alpha virt. eigenvalues --    0.11466   0.15380   0.15851   0.16660   0.20092
 Alpha virt. eigenvalues --    0.20168   0.25281   0.32756   0.34604   0.35314

 Mulliken charges:
               1
     1  C   -0.079244
     2  C   -0.001394
     3  N   -0.209903
     4  H    0.097965
     5  H    0.096482
     6  H    0.096094
 Sum of Mulliken charges =   0.00000

 Dipole moment (field-independent basis, Debye):
    X=              4.1457    Y=             -0.0073    Z=              0.0171  Tot=              4.1457
 Quadrupole moment (field-independent basis, Debye-Ang):
   XX=            -20.9917   YY=            -17.6457   ZZ=            -17.8103
   XY=             -0.0642   XZ=              0.0021   YZ=              0.0121

 Normal termination of Gaussian 09 at Wed Aug 26 11:15:30 2020.
