 Gaussian 09, Revision D.01,
 Gaussian 09:  ES64L-G09RevD.01 24-Apr-2013

 --------------------
 #p B2PLYPD3/Def2QZVP
 --------------------

 ------------
 cyanomethane
 ------------
 Symbolic Z-matrix:
 Charge =  0 Multiplicity = 1

                         Standard orientation:
 ---------------------------------------------------------------------
 Center     Atomic      Atomic             Coordinates (Angstroms)
 Number     Number       Type             X           Y           Z
 ---------------------------------------------------------------------
      1          6           0       -1.189988    0.005140   -0.005046
      2          6           0        0.278964    0.003759    0.016847
      3          7           0        1.443080    0.003384   -0.013244
      4          1           0       -1.451577   -0.403914    0.927881
      5          1           0       -1.550427   -0.677684   -0.763849
      6          1           0       -1.633413    1.004517   -0.142132
 ---------------------------------------------------------------------

 SCF Done:  E(RB2PLYPD3) =  -132.531997049     A.U. after   12 cycles
 E2(B2PLYPD3) =    -0.1812777925D+00 E(B2PLYPD3) =    -0.13271327484116D+03

 The electronic state is 1-A.
 Alpha  occ. eigenvalues --  -14.84457 -10.66974 -10.66589  -1.03684  -0.89419
 Alpha  occ. eigenvalues --   -0.59524  -0.54511  -0.53893  -0.44773  -0.38947
 Alpha  occ. eigenvalues --   -0.38786
 Alpha virt. eigenvalues --    0.03748   0.07535   0.08379   0.10172   0.11184
 Alpha virt. eigenvalues --    0.11372   0.15281   0.15493   0.17033   0.20124
 Alpha virt. eigenvalues --    0.20186   0.25132   0.32440   0.34590   0.35004

 Mulliken charges:
               1
     1  C   -0.085348
     2  C   -0.000015
     3  N   -0.211395
     4  H    0.099887
     5  H    0.097171
     6  H    0.099700
 Sum of Mulliken charges =   0.00000

 Dipole moment (field-independent basis, Debye):
    X=             -4.1535    Y=             -0.0365    Z=              0.0381  Tot=              4.1539
 Quadrupole moment (field-independent basis, Debye-Ang):
   XX=            -21.0121   YY=            -17.6720   ZZ=            -17.8752
   XY=             -0.0443   XZ=              0.1126   YZ=             -0.0190

 Normal termination of Gaussian 09 at Wed Aug 26 15:57:52 2020.
