 Gaussian 09, Revision D.01,
 Gaussian 09:  ES64L-G09RevD.01 24-Apr-2013

 --------------------
 #p B2PLYPD3/Def2QZVP
 --------------------

 ------------
 cyanomethane
 ------------
 Symbolic Z-matrix:
 Charge =  0 Multiplicity = 1

                         Standard orientation:
 ---------------------------------------------------------------------
 Center     Atomic      Atomic             Coordinates (Angstroms)
 Number     Number       Type             X           Y           Z
 ---------------------------------------------------------------------
      1          6           0        1.171321   -0.022566   -0.002293
      2          6           0       -0.280321   -0.003508    0.004010
      3          7           0       -1.441665    0.011127    0.003782
      4          1           0        1.658876    1.006616   -0.196650
      5          1           0        1.459057   -0.627064   -0.753081
      6          1           0        1.627716   -0.301001    0.912954
 ---------------------------------------------------------------------

 SCF Done:  E(RB2PLYPD3) =  -132.525147963     A.U. after   12 cycles
 E2(B2PLYPD3) =    -0.1810723299D+00 E(B2PLYPD3) =    -0.13270622029307D+03

 The electronic state is 1-A.
 Alpha  occ. eigenvalues --  -14.84550 -10.66635 -10.66527  -1.03975  -0.89800
 Alpha  occ. eigenvalues --   -0.60930  -0.55854  -0.51900  -0.44983  -0.39199
 Alpha  occ. eigenvalues --   -0.38757
 Alpha virt. eigenvalues --    0.03668   0.07062   0.08410   0.10186   0.11145
 Alpha virt. eigenvalues --    0.11717   0.15456   0.16416   0.17044   0.20020
 Alpha virt. eigenvalues --    0.20249   0.25448   0.32263   0.34054   0.35884

 Mulliken charges:
               1
     1  C   -0.066614
     2  C    0.003962
     3  N   -0.208912
     4  H    0.080889
     5  H    0.099743
     6  H    0.090933
 Sum of Mulliken charges =   0.00000

 Dipole moment (field-independent basis, Debye):
    X=              4.1552    Y=             -0.0327    Z=             -0.0034  Tot=              4.1553
 Quadrupole moment (field-independent basis, Debye-Ang):
   XX=            -20.6627   YY=            -17.9085   ZZ=            -17.7988
   XY=              0.1533   XZ=              0.1231   YZ=              0.0989

 Normal termination of Gaussian 09 at Wed Aug 26 18:46:51 2020.
