 Gaussian 09, Revision D.01,
 Gaussian 09:  ES64L-G09RevD.01 24-Apr-2013

 --------------------
 #p B2PLYPD3/Def2QZVP
 --------------------

 ------------
 cyanomethane
 ------------
 Symbolic Z-matrix:
 Charge =  0 Multiplicity = 1

                         Standard orientation:
 ---------------------------------------------------------------------
 Center     Atomic      Atomic             Coordinates (Angstroms)
 Number     Number       Type             X           Y           Z
 ---------------------------------------------------------------------
      1          6           0        1.186487    0.007913   -0.011379
      2          6           0       -0.285411    0.078206    0.013308
      3          7           0       -1.451082   -0.044038   -0.012936
      4          1           0        1.573470    1.050708   -0.106092
      5          1           0        1.677954   -0.755333   -0.775406
      6          1           0        1.499687   -0.503821    0.960481
 ---------------------------------------------------------------------

 SCF Done:  E(RB2PLYPD3) =  -132.518893036     A.U. after   13 cycles
 E2(B2PLYPD3) =    -0.1833041519D+00 E(B2PLYPD3) =    -0.13270219718811D+03

 The electronic state is 1-A.
 Alpha  occ. eigenvalues --  -14.84891 -10.69071 -10.67024  -1.03486  -0.87726
 Alpha  occ. eigenvalues --   -0.59143  -0.54183  -0.50516  -0.44966  -0.38852
 Alpha  occ. eigenvalues --   -0.38285
 Alpha virt. eigenvalues --    0.03003   0.06112   0.07581   0.09875   0.10855
 Alpha virt. eigenvalues --    0.11854   0.15069   0.15685   0.17235   0.19886
 Alpha virt. eigenvalues --    0.20393   0.25345   0.31683   0.32648   0.34403

 Mulliken charges:
               1
     1  C   -0.099696
     2  C    0.007622
     3  N   -0.210118
     4  H    0.107253
     5  H    0.097134
     6  H    0.097806
 Sum of Mulliken charges =   0.00000

 Dipole moment (field-independent basis, Debye):
    X=              4.1160    Y=              0.0041    Z=              0.0591  Tot=              4.1164
 Quadrupole moment (field-independent basis, Debye-Ang):
   XX=            -21.0954   YY=            -17.5606   ZZ=            -18.2831
   XY=             -0.4033   XZ=             -0.0913   YZ=             -0.0596

 Normal termination of Gaussian 09 at Wed Aug 26 21:49:25 2020.
