 Gaussian 09, Revision D.01,
 Gaussian 09:  ES64L-G09RevD.01 24-Apr-2013

 --------------------
 #p B2PLYPD3/Def2QZVP
 --------------------

 ------------
 cyanomethane
 ------------
 Symbolic Z-matrix:
 Charge =  0 Multiplicity = 1

                         Standard orientation:
 ---------------------------------------------------------------------
 Center     Atomic      Atomic             Coordinates (Angstroms)
 Number     Number       Type             X           Y           Z
 ---------------------------------------------------------------------
      1          6           0       -1.158373    0.011603   -0.008564
      2          6           0        0.272884   -0.015343    0.022596
      3          7           0        1.431329    0.006650   -0.012320
      4          1           0       -1.550910   -0.442329    0.892039
      5          1           0       -1.586045   -0.569653   -0.819902
      6          1           0       -1.569413    0.987868   -0.070084
 ---------------------------------------------------------------------

 SCF Done:  E(RB2PLYPD3) =  -132.533591378     A.U. after   11 cycles
 E2(B2PLYPD3) =    -0.1808177815D+00 E(B2PLYPD3) =    -0.13271440915976D+03

 The electronic state is 1-A.
 Alpha  occ. eigenvalues --  -14.84407 -10.66441 -10.66373  -1.04070  -0.89886
 Alpha  occ. eigenvalues --   -0.61138  -0.54332  -0.53508  -0.44957  -0.39007
 Alpha  occ. eigenvalues --   -0.38831
 Alpha virt. eigenvalues --    0.03815   0.07571   0.07822   0.10082   0.11487
 Alpha virt. eigenvalues --    0.11613   0.15682   0.16174   0.17126   0.20100
 Alpha virt. eigenvalues --    0.20172   0.25889   0.33073   0.34537   0.35221

 Mulliken charges:
               1
     1  C   -0.064187
     2  C    0.003231
     3  N   -0.208395
     4  H    0.087524
     5  H    0.089051
     6  H    0.092776
 Sum of Mulliken charges =   0.00000

 Dipole moment (field-independent basis, Debye):
    X=             -4.1434    Y=             -0.0174    Z=              0.0262  Tot=              4.1435
 Quadrupole moment (field-independent basis, Debye-Ang):
   XX=            -20.7230   YY=            -17.7598   ZZ=            -17.8506
   XY=             -0.0119   XZ=              0.0704   YZ=             -0.0001

 Normal termination of Gaussian 09 at Wed Aug 26 12:39:38 2020.
