 Gaussian 09, Revision D.01,
 Gaussian 09:  ES64L-G09RevD.01 24-Apr-2013

 --------------------
 #p B2PLYPD3/Def2QZVP
 --------------------

 ------------
 cyanomethane
 ------------
 Symbolic Z-matrix:
 Charge =  0 Multiplicity = 1

                         Standard orientation:
 ---------------------------------------------------------------------
 Center     Atomic      Atomic             Coordinates (Angstroms)
 Number     Number       Type             X           Y           Z
 ---------------------------------------------------------------------
      1          6           0       -1.171883    0.004221   -0.005385
      2          6           0        0.275891    0.015727    0.000519
      3          7           0        1.433400   -0.009681   -0.001582
      4          1           0       -1.542837    1.039731   -0.101353
      5          1           0       -1.534522   -0.444328    0.970656
      6          1           0       -1.580488   -0.647322   -0.829031
 ---------------------------------------------------------------------

 SCF Done:  E(RB2PLYPD3) =  -132.532355596     A.U. after   12 cycles
 E2(B2PLYPD3) =    -0.1811937562D+00 E(B2PLYPD3) =    -0.13271354935238D+03

 The electronic state is 1-A.
 Alpha  occ. eigenvalues --  -14.84274 -10.68008 -10.66323  -1.04003  -0.88733
 Alpha  occ. eigenvalues --   -0.59398  -0.53906  -0.52734  -0.44806  -0.38941
 Alpha  occ. eigenvalues --   -0.38751
 Alpha virt. eigenvalues --    0.03570   0.07213   0.07647   0.10135   0.11418
 Alpha virt. eigenvalues --    0.11689   0.15371   0.16026   0.16489   0.20061
 Alpha virt. eigenvalues --    0.20150   0.25499   0.32502   0.33664   0.34440

 Mulliken charges:
               1
     1  C   -0.096434
     2  C    0.001020
     3  N   -0.206937
     4  H    0.103429
     5  H    0.098682
     6  H    0.100240
 Sum of Mulliken charges =   0.00000

 Dipole moment (field-independent basis, Debye):
    X=             -4.1124    Y=              0.0056    Z=              0.0093  Tot=              4.1124
 Quadrupole moment (field-independent basis, Debye-Ang):
   XX=            -21.1422   YY=            -17.6985   ZZ=            -17.8517
   XY=              0.0932   XZ=              0.0230   YZ=              0.0028

 Normal termination of Gaussian 09 at Thu Aug 27 00:06:52 2020.
