 Gaussian 09, Revision D.01,
 Gaussian 09:  ES64L-G09RevD.01 24-Apr-2013

 --------------------
 #p B2PLYPD3/Def2QZVP
 --------------------

 ------------
 cyanomethane
 ------------
 Symbolic Z-matrix:
 Charge =  0 Multiplicity = 1

                         Standard orientation:
 ---------------------------------------------------------------------
 Center     Atomic      Atomic             Coordinates (Angstroms)
 Number     Number       Type             X           Y           Z
 ---------------------------------------------------------------------
      1          6           0        1.167346    0.010077    0.003018
      2          6           0       -0.284320   -0.038589   -0.003451
      3          7           0       -1.423042    0.021620    0.004954
      4          1           0        1.581653    1.055778   -0.081610
      5          1           0        1.497974   -0.580726   -0.853115
      6          1           0        1.583510   -0.455323    0.902644
 ---------------------------------------------------------------------

 SCF Done:  E(RB2PLYPD3) =  -132.534042628     A.U. after   12 cycles
 E2(B2PLYPD3) =    -0.1795362446D+00 E(B2PLYPD3) =    -0.13271357887276D+03

 The electronic state is 1-A.
 Alpha  occ. eigenvalues --  -14.83808 -10.67447 -10.65820  -1.04720  -0.88912
 Alpha  occ. eigenvalues --   -0.59597  -0.53677  -0.53269  -0.44771  -0.39375
 Alpha  occ. eigenvalues --   -0.39303
 Alpha virt. eigenvalues --    0.03631   0.07588   0.08291   0.10151   0.11699
 Alpha virt. eigenvalues --    0.11702   0.15478   0.15845   0.17119   0.20011
 Alpha virt. eigenvalues --    0.20057   0.25594   0.32922   0.34228   0.34504

 Mulliken charges:
               1
     1  C   -0.089919
     2  C   -0.002115
     3  N   -0.198188
     4  H    0.097875
     5  H    0.096587
     6  H    0.095760
 Sum of Mulliken charges =   0.00000

 Dipole moment (field-independent basis, Debye):
    X=              4.0885    Y=             -0.0535    Z=             -0.0125  Tot=              4.0888
 Quadrupole moment (field-independent basis, Debye-Ang):
   XX=            -20.9999   YY=            -17.6614   ZZ=            -17.7887
   XY=              0.1183   XZ=              0.0776   YZ=              0.0044

 Normal termination of Gaussian 09 at Wed Aug 26 15:01:40 2020.
