 Gaussian 09, Revision D.01,
 Gaussian 09:  ES64L-G09RevD.01 24-Apr-2013

 --------------------
 #p B2PLYPD3/Def2QZVP
 --------------------

 ------------
 cyanomethane
 ------------
 Symbolic Z-matrix:
 Charge =  0 Multiplicity = 1

                         Standard orientation:
 ---------------------------------------------------------------------
 Center     Atomic      Atomic             Coordinates (Angstroms)
 Number     Number       Type             X           Y           Z
 ---------------------------------------------------------------------
      1          6           0        1.177457   -0.000764    0.000457
      2          6           0       -0.278347    0.008125   -0.007040
      3          7           0       -1.437686   -0.005080    0.000508
      4          1           0        1.551903    1.009875   -0.157174
      5          1           0        1.598030   -0.660785   -0.752831
      6          1           0        1.519212   -0.357704    0.945949
 ---------------------------------------------------------------------

 SCF Done:  E(RB2PLYPD3) =  -132.534928208     A.U. after   12 cycles
 E2(B2PLYPD3) =    -0.1807916996D+00 E(B2PLYPD3) =    -0.13271571990740D+03

 The electronic state is 1-A.
 Alpha  occ. eigenvalues --  -14.84358 -10.66855 -10.66429  -1.03943  -0.89442
 Alpha  occ. eigenvalues --   -0.60086  -0.54252  -0.53778  -0.44837  -0.38996
 Alpha  occ. eigenvalues --   -0.38954
 Alpha virt. eigenvalues --    0.03797   0.07743   0.08016   0.10175   0.11346
 Alpha virt. eigenvalues --    0.11464   0.15432   0.16177   0.16635   0.20089
 Alpha virt. eigenvalues --    0.20142   0.25374   0.32714   0.34780   0.34810

 Mulliken charges:
               1
     1  C   -0.077123
     2  C   -0.000087
     3  N   -0.208532
     4  H    0.095982
     5  H    0.093946
     6  H    0.095815
 Sum of Mulliken charges =   0.00000

 Dipole moment (field-independent basis, Debye):
    X=              4.1435    Y=             -0.0038    Z=              0.0140  Tot=              4.1435
 Quadrupole moment (field-independent basis, Debye-Ang):
   XX=            -20.9150   YY=            -17.7134   ZZ=            -17.8402
   XY=             -0.0704   XZ=             -0.0171   YZ=             -0.0121

 Normal termination of Gaussian 09 at Thu Aug 27 00:10:56 2020.
