 Gaussian 09, Revision D.01,
 Gaussian 09:  ES64L-G09RevD.01 24-Apr-2013

 --------------------
 #p B2PLYPD3/Def2QZVP
 --------------------

 ------------
 cyanomethane
 ------------
 Symbolic Z-matrix:
 Charge =  0 Multiplicity = 1

                         Standard orientation:
 ---------------------------------------------------------------------
 Center     Atomic      Atomic             Coordinates (Angstroms)
 Number     Number       Type             X           Y           Z
 ---------------------------------------------------------------------
      1          6           0        1.148738   -0.006223   -0.034672
      2          6           0       -0.253347    0.041896    0.051558
      3          7           0       -1.440651   -0.018939   -0.010640
      4          1           0        1.715317   -0.379157    0.980048
      5          1           0        1.565301    1.045369   -0.221353
      6          1           0        1.431587   -0.747675   -0.785531
 ---------------------------------------------------------------------

 SCF Done:  E(RB2PLYPD3) =  -132.514831074     A.U. after   12 cycles
 E2(B2PLYPD3) =    -0.1848630869D+00 E(B2PLYPD3) =    -0.13269969416083D+03

 The electronic state is 1-A.
 Alpha  occ. eigenvalues --  -14.85263 -10.68543 -10.67193  -1.02963  -0.89095
 Alpha  occ. eigenvalues --   -0.60209  -0.54593  -0.51054  -0.45089  -0.38082
 Alpha  occ. eigenvalues --   -0.37592
 Alpha virt. eigenvalues --    0.03283   0.05323   0.06548   0.09976   0.11266
 Alpha virt. eigenvalues --    0.11802   0.15324   0.16241   0.16394   0.20126
 Alpha virt. eigenvalues --    0.20307   0.26425   0.31126   0.33079   0.34793

 Mulliken charges:
               1
     1  C   -0.095090
     2  C    0.011044
     3  N   -0.219675
     4  H    0.087585
     5  H    0.103479
     6  H    0.112656
 Sum of Mulliken charges =   0.00000

 Dipole moment (field-independent basis, Debye):
    X=              4.1281    Y=              0.0060    Z=             -0.0149  Tot=              4.1282
 Quadrupole moment (field-independent basis, Debye-Ang):
   XX=            -21.0853   YY=            -17.7461   ZZ=            -18.1262
   XY=             -0.0861   XZ=              0.1229   YZ=              0.1050

 Normal termination of Gaussian 09 at Wed Aug 26 20:23:09 2020.
