 Gaussian 09, Revision D.01,
 Gaussian 09:  ES64L-G09RevD.01 24-Apr-2013

 --------------------
 #p B2PLYPD3/Def2QZVP
 --------------------

 ------------
 cyanomethane
 ------------
 Symbolic Z-matrix:
 Charge =  0 Multiplicity = 1

                         Standard orientation:
 ---------------------------------------------------------------------
 Center     Atomic      Atomic             Coordinates (Angstroms)
 Number     Number       Type             X           Y           Z
 ---------------------------------------------------------------------
      1          6           0       -1.190378   -0.007172    0.020517
      2          6           0        0.290671    0.037036    0.016526
      3          7           0        1.435434   -0.022772   -0.013460
      4          1           0       -1.614225   -0.809447   -0.671263
      5          1           0       -1.513341    0.948935   -0.416689
      6          1           0       -1.522232   -0.159262    0.959907
 ---------------------------------------------------------------------

 SCF Done:  E(RB2PLYPD3) =  -132.528088497     A.U. after   12 cycles
 E2(B2PLYPD3) =    -0.1798489674D+00 E(B2PLYPD3) =    -0.13270793746441D+03

 The electronic state is 1-A.
 Alpha  occ. eigenvalues --  -14.84002 -10.67125 -10.66097  -1.04390  -0.89073
 Alpha  occ. eigenvalues --   -0.59388  -0.55586  -0.52267  -0.44729  -0.39561
 Alpha  occ. eigenvalues --   -0.39118
 Alpha virt. eigenvalues --    0.03609   0.07621   0.08919   0.10188   0.11134
 Alpha virt. eigenvalues --    0.11643   0.15299   0.15824   0.16923   0.19975
 Alpha virt. eigenvalues --    0.20107   0.25005   0.32503   0.33635   0.35454

 Mulliken charges:
               1
     1  C   -0.088058
     2  C   -0.003420
     3  N   -0.201627
     4  H    0.091702
     5  H    0.096186
     6  H    0.105217
 Sum of Mulliken charges =   0.00000

 Dipole moment (field-independent basis, Debye):
    X=             -4.1134    Y=              0.0428    Z=              0.0152  Tot=              4.1136
 Quadrupole moment (field-independent basis, Debye-Ang):
   XX=            -21.0086   YY=            -17.7997   ZZ=            -17.6611
   XY=              0.1831   XZ=              0.1369   YZ=             -0.0751

 Normal termination of Gaussian 09 at Wed Aug 26 11:29:58 2020.
