 Gaussian 09, Revision D.01,
 Gaussian 09:  ES64L-G09RevD.01 24-Apr-2013

 --------------------
 #p B2PLYPD3/Def2QZVP
 --------------------

 ------------
 cyanomethane
 ------------
 Symbolic Z-matrix:
 Charge =  0 Multiplicity = 1

                         Standard orientation:
 ---------------------------------------------------------------------
 Center     Atomic      Atomic             Coordinates (Angstroms)
 Number     Number       Type             X           Y           Z
 ---------------------------------------------------------------------
      1          6           0       -1.191291    0.016200    0.018678
      2          6           0        0.306211   -0.022687   -0.048484
      3          7           0        1.438442   -0.000119    0.017413
      4          1           0       -1.468864    1.051663   -0.182737
      5          1           0       -1.539748   -0.320683    0.943088
      6          1           0       -1.750007   -0.691228   -0.703400
 ---------------------------------------------------------------------

 SCF Done:  E(RB2PLYPD3) =  -132.528246466     A.U. after   12 cycles
 E2(B2PLYPD3) =    -0.1790640836D+00 E(B2PLYPD3) =    -0.13270731054994D+03

 The electronic state is 1-A.
 Alpha  occ. eigenvalues --  -14.83775 -10.67669 -10.65964  -1.04946  -0.88291
 Alpha  occ. eigenvalues --   -0.59520  -0.54512  -0.51662  -0.44768  -0.39899
 Alpha  occ. eigenvalues --   -0.39606
 Alpha virt. eigenvalues --    0.03651   0.07604   0.08676   0.10345   0.11371
 Alpha virt. eigenvalues --    0.11771   0.14992   0.16586   0.16895   0.19878
 Alpha virt. eigenvalues --    0.20017   0.24754   0.31818   0.34550   0.35038

 Mulliken charges:
               1
     1  C   -0.085860
     2  C   -0.002392
     3  N   -0.194055
     4  H    0.100720
     5  H    0.097743
     6  H    0.083842
 Sum of Mulliken charges =   0.00000

 Dipole moment (field-independent basis, Debye):
    X=             -4.1146    Y=             -0.0107    Z=              0.0148  Tot=              4.1146
 Quadrupole moment (field-independent basis, Debye-Ang):
   XX=            -20.8092   YY=            -17.6080   ZZ=            -17.9899
   XY=              0.2141   XZ=             -0.1009   YZ=             -0.1091

 Normal termination of Gaussian 09 at Wed Aug 26 16:33:02 2020.
