 Gaussian 09, Revision D.01,
 Gaussian 09:  ES64L-G09RevD.01 24-Apr-2013

 --------------------
 #p B2PLYPD3/Def2QZVP
 --------------------

 ------------
 cyanomethane
 ------------
 Symbolic Z-matrix:
 Charge =  0 Multiplicity = 1

                         Standard orientation:
 ---------------------------------------------------------------------
 Center     Atomic      Atomic             Coordinates (Angstroms)
 Number     Number       Type             X           Y           Z
 ---------------------------------------------------------------------
      1          6           0        1.176482    0.002893   -0.005051
      2          6           0       -0.277500   -0.014996   -0.014574
      3          7           0       -1.438953    0.010630    0.008798
      4          1           0        1.532859   -0.507031   -0.887963
      5          1           0        1.545287   -0.545416    0.904759
      6          1           0        1.600630    1.050657    0.039373
 ---------------------------------------------------------------------

 SCF Done:  E(RB2PLYPD3) =  -132.532356693     A.U. after   12 cycles
 E2(B2PLYPD3) =    -0.1814482584D+00 E(B2PLYPD3) =    -0.13271380495097D+03

 The electronic state is 1-A.
 Alpha  occ. eigenvalues --  -14.84436 -10.67792 -10.66509  -1.03845  -0.88828
 Alpha  occ. eigenvalues --   -0.59580  -0.54035  -0.52811  -0.44846  -0.38900
 Alpha  occ. eigenvalues --   -0.38748
 Alpha virt. eigenvalues --    0.03583   0.07130   0.07839   0.10136   0.11324
 Alpha virt. eigenvalues --    0.11569   0.15364   0.15950   0.16657   0.20079
 Alpha virt. eigenvalues --    0.20161   0.25415   0.32460   0.33869   0.34558

 Mulliken charges:
               1
     1  C   -0.090631
     2  C    0.001278
     3  N   -0.208738
     4  H    0.101906
     5  H    0.097499
     6  H    0.098686
 Sum of Mulliken charges =   0.00000

 Dipole moment (field-independent basis, Debye):
    X=              4.1281    Y=             -0.0265    Z=             -0.0110  Tot=              4.1282
 Quadrupole moment (field-independent basis, Debye-Ang):
   XX=            -21.0601   YY=            -17.7888   ZZ=            -17.8157
   XY=              0.0834   XZ=              0.0646   YZ=              0.0366

 Normal termination of Gaussian 09 at Thu Aug 27 00:14:39 2020.
