 Gaussian 09, Revision D.01,
 Gaussian 09:  ES64L-G09RevD.01 24-Apr-2013

 --------------------
 #p B2PLYPD3/Def2QZVP
 --------------------

 ------------
 cyanomethane
 ------------
 Symbolic Z-matrix:
 Charge =  0 Multiplicity = 1

                         Standard orientation:
 ---------------------------------------------------------------------
 Center     Atomic      Atomic             Coordinates (Angstroms)
 Number     Number       Type             X           Y           Z
 ---------------------------------------------------------------------
      1          6           0       -1.178007   -0.004562    0.007932
      2          6           0        0.284328    0.019996   -0.005952
      3          7           0        1.427477   -0.007537    0.001271
      4          1           0       -1.521678   -0.261813    0.976569
      5          1           0       -1.528933   -0.765290   -0.708292
      6          1           0       -1.579653    0.987255   -0.289056
 ---------------------------------------------------------------------

 SCF Done:  E(RB2PLYPD3) =  -132.535436124     A.U. after   11 cycles
 E2(B2PLYPD3) =    -0.1795213492D+00 E(B2PLYPD3) =    -0.13271495747277D+03

 The electronic state is 1-A.
 Alpha  occ. eigenvalues --  -14.83842 -10.67173 -10.65895  -1.04525  -0.89095
 Alpha  occ. eigenvalues --   -0.59387  -0.54302  -0.53520  -0.44704  -0.39382
 Alpha  occ. eigenvalues --   -0.39270
 Alpha virt. eigenvalues --    0.03760   0.07983   0.08319   0.10206   0.11514
 Alpha virt. eigenvalues --    0.11627   0.15388   0.16295   0.16384   0.20019
 Alpha virt. eigenvalues --    0.20061   0.25278   0.32715   0.34322   0.34951

 Mulliken charges:
               1
     1  C   -0.089069
     2  C   -0.004207
     3  N   -0.200524
     4  H    0.100353
     5  H    0.097122
     6  H    0.096326
 Sum of Mulliken charges =   0.00000

 Dipole moment (field-independent basis, Debye):
    X=             -4.1049    Y=             -0.0012    Z=              0.0064  Tot=              4.1049
 Quadrupole moment (field-independent basis, Debye-Ang):
   XX=            -21.0558   YY=            -17.6732   ZZ=            -17.7271
   XY=              0.0295   XZ=             -0.0074   YZ=             -0.0155

 Normal termination of Gaussian 09 at Thu Aug 27 00:14:37 2020.
