 Gaussian 09, Revision D.01,
 Gaussian 09:  ES64L-G09RevD.01 24-Apr-2013

 --------------------
 #p B2PLYPD3/Def2QZVP
 --------------------

 ------------
 cyanomethane
 ------------
 Symbolic Z-matrix:
 Charge =  0 Multiplicity = 1

                         Standard orientation:
 ---------------------------------------------------------------------
 Center     Atomic      Atomic             Coordinates (Angstroms)
 Number     Number       Type             X           Y           Z
 ---------------------------------------------------------------------
      1          6           0       -1.169310   -0.003672   -0.006677
      2          6           0        0.280748    0.011921    0.011429
      3          7           0        1.430521   -0.003348   -0.005357
      4          1           0       -1.548155   -0.352002    0.949984
      5          1           0       -1.539135   -0.669826   -0.762681
      6          1           0       -1.594984    0.995766   -0.178312
 ---------------------------------------------------------------------

 SCF Done:  E(RB2PLYPD3) =  -132.535742388     A.U. after   11 cycles
 E2(B2PLYPD3) =    -0.1800572792D+00 E(B2PLYPD3) =    -0.13271579966687D+03

 The electronic state is 1-A.
 Alpha  occ. eigenvalues --  -14.84106 -10.66914 -10.66140  -1.04347  -0.89347
 Alpha  occ. eigenvalues --   -0.60176  -0.54073  -0.53555  -0.44835  -0.39215
 Alpha  occ. eigenvalues --   -0.39134
 Alpha virt. eigenvalues --    0.03787   0.07830   0.08030   0.10173   0.11529
 Alpha virt. eigenvalues --    0.11591   0.15514   0.16314   0.16727   0.20065
 Alpha virt. eigenvalues --    0.20078   0.25512   0.32869   0.34561   0.34939

 Mulliken charges:
               1
     1  C   -0.077203
     2  C   -0.000865
     3  N   -0.203642
     4  H    0.092747
     5  H    0.096030
     6  H    0.092934
 Sum of Mulliken charges =   0.00000

 Dipole moment (field-independent basis, Debye):
    X=             -4.1242    Y=             -0.0065    Z=              0.0141  Tot=              4.1242
 Quadrupole moment (field-independent basis, Debye-Ang):
   XX=            -20.8796   YY=            -17.7343   ZZ=            -17.7859
   XY=              0.0016   XZ=              0.0149   YZ=              0.0193

 Normal termination of Gaussian 09 at Wed Aug 26 23:59:18 2020.
