 Gaussian 09, Revision D.01,
 Gaussian 09:  ES64L-G09RevD.01 24-Apr-2013

 --------------------
 #p B2PLYPD3/Def2QZVP
 --------------------

 ------------
 cyanomethane
 ------------
 Symbolic Z-matrix:
 Charge =  0 Multiplicity = 1

                         Standard orientation:
 ---------------------------------------------------------------------
 Center     Atomic      Atomic             Coordinates (Angstroms)
 Number     Number       Type             X           Y           Z
 ---------------------------------------------------------------------
      1          6           0       -1.169458    0.026984   -0.001219
      2          6           0        0.269111   -0.034474   -0.006361
      3          7           0        1.430118    0.012350    0.002848
      4          1           0       -1.530887   -0.094487    1.030563
      5          1           0       -1.570584   -0.893592   -0.569153
      6          1           0       -1.507275    0.946568   -0.435870
 ---------------------------------------------------------------------

 SCF Done:  E(RB2PLYPD3) =  -132.531124356     A.U. after   12 cycles
 E2(B2PLYPD3) =    -0.1814117242D+00 E(B2PLYPD3) =    -0.13271253608006D+03

 The electronic state is 1-A.
 Alpha  occ. eigenvalues --  -14.84331 -10.67554 -10.66341  -1.03840  -0.89238
 Alpha  occ. eigenvalues --   -0.59566  -0.54925  -0.52638  -0.44786  -0.38886
 Alpha  occ. eigenvalues --   -0.38518
 Alpha virt. eigenvalues --    0.03642   0.07253   0.07702   0.10075   0.11347
 Alpha virt. eigenvalues --    0.11683   0.15421   0.15737   0.16586   0.20074
 Alpha virt. eigenvalues --    0.20188   0.25737   0.32254   0.33686   0.35053

 Mulliken charges:
               1
     1  C   -0.094190
     2  C    0.001853
     3  N   -0.210295
     4  H    0.099731
     5  H    0.094537
     6  H    0.108365
 Sum of Mulliken charges =   0.00000

 Dipole moment (field-independent basis, Debye):
    X=             -4.1107    Y=             -0.0198    Z=              0.0188  Tot=              4.1108
 Quadrupole moment (field-independent basis, Debye-Ang):
   XX=            -21.1844   YY=            -17.6398   ZZ=            -17.8527
   XY=              0.0001   XZ=             -0.0610   YZ=             -0.0853

 Normal termination of Gaussian 09 at Wed Aug 26 13:03:55 2020.
