 Gaussian 09, Revision D.01,
 Gaussian 09:  ES64L-G09RevD.01 24-Apr-2013

 --------------------
 #p B2PLYPD3/Def2QZVP
 --------------------

 ------------
 cyanomethane
 ------------
 Symbolic Z-matrix:
 Charge =  0 Multiplicity = 1

                         Standard orientation:
 ---------------------------------------------------------------------
 Center     Atomic      Atomic             Coordinates (Angstroms)
 Number     Number       Type             X           Y           Z
 ---------------------------------------------------------------------
      1          6           0        1.160429   -0.042220   -0.002274
      2          6           0       -0.267957   -0.021892    0.046243
      3          7           0       -1.442539    0.024299   -0.018533
      4          1           0        1.454031   -0.870733   -0.497244
      5          1           0        1.662826    0.146927    0.966698
      6          1           0        1.626085    0.938381   -0.603539
 ---------------------------------------------------------------------

 SCF Done:  E(RB2PLYPD3) =  -132.512628578     A.U. after   12 cycles
 E2(B2PLYPD3) =    -0.1832949985D+00 E(B2PLYPD3) =    -0.13269592357693D+03

 The electronic state is 1-A.
 Alpha  occ. eigenvalues --  -14.84996 -10.67702 -10.66992  -1.03433  -0.89443
 Alpha  occ. eigenvalues --   -0.60722  -0.56418  -0.50122  -0.45082  -0.38824
 Alpha  occ. eigenvalues --   -0.37830
 Alpha virt. eigenvalues --    0.02916   0.06074   0.07730   0.10074   0.10897
 Alpha virt. eigenvalues --    0.11972   0.15450   0.16321   0.16858   0.19997
 Alpha virt. eigenvalues --    0.20331   0.25881   0.31031   0.32780   0.35939

 Mulliken charges:
               1
     1  C   -0.081633
     2  C    0.007931
     3  N   -0.214179
     4  H    0.110800
     5  H    0.096189
     6  H    0.080892
 Sum of Mulliken charges =   0.00000

 Dipole moment (field-independent basis, Debye):
    X=              4.1370    Y=             -0.0265    Z=              0.0449  Tot=              4.1374
 Quadrupole moment (field-independent basis, Debye-Ang):
   XX=            -20.8623   YY=            -17.8360   ZZ=            -18.0240
   XY=              0.3209   XZ=              0.0337   YZ=              0.2512

 Normal termination of Gaussian 09 at Wed Aug 26 23:53:54 2020.
