 Gaussian 09, Revision D.01,
 Gaussian 09:  ES64L-G09RevD.01 24-Apr-2013

 --------------------
 #p B2PLYPD3/Def2QZVP
 --------------------

 ------------
 cyanomethane
 ------------
 Symbolic Z-matrix:
 Charge =  0 Multiplicity = 1

                         Standard orientation:
 ---------------------------------------------------------------------
 Center     Atomic      Atomic             Coordinates (Angstroms)
 Number     Number       Type             X           Y           Z
 ---------------------------------------------------------------------
      1          6           0       -1.197229    0.001905    0.002642
      2          6           0        0.291547    0.044989    0.019950
      3          7           0        1.442157   -0.007118   -0.012771
      4          1           0       -1.470519   -0.354194    0.922598
      5          1           0       -1.417201   -0.832702   -0.696976
      6          1           0       -1.773284    0.955353   -0.271780
 ---------------------------------------------------------------------

 SCF Done:  E(RB2PLYPD3) =  -132.525705165     A.U. after   12 cycles
 E2(B2PLYPD3) =    -0.1805650591D+00 E(B2PLYPD3) =    -0.13270627022445D+03

 The electronic state is 1-A.
 Alpha  occ. eigenvalues --  -14.84129 -10.67584 -10.66374  -1.04154  -0.88869
 Alpha  occ. eigenvalues --   -0.59039  -0.54203  -0.53044  -0.44704  -0.39353
 Alpha  occ. eigenvalues --   -0.39020
 Alpha virt. eigenvalues --    0.03583   0.07352   0.08767   0.10323   0.11192
 Alpha virt. eigenvalues --    0.11638   0.14953   0.15444   0.17426   0.20058
 Alpha virt. eigenvalues --    0.20151   0.24774   0.31789   0.33895   0.35206

 Mulliken charges:
               1
     1  C   -0.097377
     2  C    0.000485
     3  N   -0.205500
     4  H    0.102852
     5  H    0.098292
     6  H    0.101248
 Sum of Mulliken charges =   0.00000

 Dipole moment (field-independent basis, Debye):
    X=             -4.1472    Y=             -0.0508    Z=              0.0481  Tot=              4.1478
 Quadrupole moment (field-independent basis, Debye-Ang):
   XX=            -20.9746   YY=            -17.6121   ZZ=            -17.9703
   XY=             -0.1074   XZ=              0.0355   YZ=             -0.0515

 Normal termination of Gaussian 09 at Wed Aug 26 18:58:12 2020.
