 Gaussian 09, Revision D.01,
 Gaussian 09:  ES64L-G09RevD.01 24-Apr-2013

 --------------------
 #p B2PLYPD3/Def2QZVP
 --------------------

 ------------
 cyanomethane
 ------------
 Symbolic Z-matrix:
 Charge =  0 Multiplicity = 1

                         Standard orientation:
 ---------------------------------------------------------------------
 Center     Atomic      Atomic             Coordinates (Angstroms)
 Number     Number       Type             X           Y           Z
 ---------------------------------------------------------------------
      1          6           0       -1.177879    0.000918   -0.005107
      2          6           0        0.277662    0.007308    0.021874
      3          7           0        1.440202   -0.005418   -0.011999
      4          1           0       -1.540734    1.034292   -0.049066
      5          1           0       -1.556055   -0.484841    0.888574
      6          1           0       -1.583326   -0.560881   -0.856116
 ---------------------------------------------------------------------

 SCF Done:  E(RB2PLYPD3) =  -132.534308704     A.U. after   12 cycles
 E2(B2PLYPD3) =    -0.1812891314D+00 E(B2PLYPD3) =    -0.13271559783529D+03

 The electronic state is 1-A.
 Alpha  occ. eigenvalues --  -14.84479 -10.67240 -10.66553  -1.03804  -0.89168
 Alpha  occ. eigenvalues --   -0.59955  -0.54104  -0.53396  -0.44862  -0.38894
 Alpha  occ. eigenvalues --   -0.38830
 Alpha virt. eigenvalues --    0.03712   0.07474   0.07853   0.10140   0.11302
 Alpha virt. eigenvalues --    0.11475   0.15398   0.16097   0.16641   0.20093
 Alpha virt. eigenvalues --    0.20158   0.25406   0.32632   0.34504   0.34625

 Mulliken charges:
               1
     1  C   -0.081313
     2  C    0.000970
     3  N   -0.209708
     4  H    0.098259
     5  H    0.095836
     6  H    0.095956
 Sum of Mulliken charges =   0.00000

 Dipole moment (field-independent basis, Debye):
    X=             -4.1413    Y=             -0.0044    Z=              0.0205  Tot=              4.1414
 Quadrupole moment (field-independent basis, Debye-Ang):
   XX=            -20.9612   YY=            -17.7273   ZZ=            -17.8743
   XY=              0.0860   XZ=              0.0739   YZ=             -0.0099

 Normal termination of Gaussian 09 at Thu Aug 27 00:01:48 2020.
