 Gaussian 09, Revision D.01,
 Gaussian 09:  ES64L-G09RevD.01 24-Apr-2013

 --------------------
 #p B2PLYPD3/Def2QZVP
 --------------------

 ------------
 cyanomethane
 ------------
 Symbolic Z-matrix:
 Charge =  0 Multiplicity = 1

                         Standard orientation:
 ---------------------------------------------------------------------
 Center     Atomic      Atomic             Coordinates (Angstroms)
 Number     Number       Type             X           Y           Z
 ---------------------------------------------------------------------
      1          6           0        1.192596    0.005554    0.002625
      2          6           0       -0.273813   -0.018109   -0.026306
      3          7           0       -1.441805    0.014892    0.012056
      4          1           0        1.474862   -0.858445   -0.605529
      5          1           0        1.499244   -0.138878    1.053278
      6          1           0        1.605830    0.968411   -0.390060
 ---------------------------------------------------------------------

 SCF Done:  E(RB2PLYPD3) =  -132.530999290     A.U. after   12 cycles
 E2(B2PLYPD3) =    -0.1820164427D+00 E(B2PLYPD3) =    -0.13271301573302D+03

 The electronic state is 1-A.
 Alpha  occ. eigenvalues --  -14.84495 -10.67823 -10.66619  -1.03448  -0.88910
 Alpha  occ. eigenvalues --   -0.58767  -0.54251  -0.53580  -0.44692  -0.38670
 Alpha  occ. eigenvalues --   -0.38584
 Alpha virt. eigenvalues --    0.03593   0.07316   0.08010   0.10115   0.11170
 Alpha virt. eigenvalues --    0.11346   0.15148   0.15394   0.16500   0.20127
 Alpha virt. eigenvalues --    0.20200   0.25176   0.32281   0.34065   0.34381

 Mulliken charges:
               1
     1  C   -0.102039
     2  C    0.000505
     3  N   -0.213619
     4  H    0.105780
     5  H    0.104904
     6  H    0.104469
 Sum of Mulliken charges =   0.00000

 Dipole moment (field-independent basis, Debye):
    X=              4.1309    Y=             -0.0296    Z=             -0.0042  Tot=              4.1310
 Quadrupole moment (field-independent basis, Debye-Ang):
   XX=            -21.3082   YY=            -17.7054   ZZ=            -17.8001
   XY=              0.1634   XZ=              0.0666   YZ=              0.0105

 Normal termination of Gaussian 09 at Wed Aug 26 11:50:14 2020.
