 Gaussian 09, Revision D.01,
 Gaussian 09:  ES64L-G09RevD.01 24-Apr-2013

 --------------------
 #p B2PLYPD3/Def2QZVP
 --------------------

 ------------
 cyanomethane
 ------------
 Symbolic Z-matrix:
 Charge =  0 Multiplicity = 1

                         Standard orientation:
 ---------------------------------------------------------------------
 Center     Atomic      Atomic             Coordinates (Angstroms)
 Number     Number       Type             X           Y           Z
 ---------------------------------------------------------------------
      1          6           0        1.186927    0.006999    0.000996
      2          6           0       -0.283174   -0.016768   -0.007043
      3          7           0       -1.434635    0.008340    0.005851
      4          1           0        1.570803   -0.016618    1.010995
      5          1           0        1.527763    0.919854   -0.494523
      6          1           0        1.521365   -0.903000   -0.521149
 ---------------------------------------------------------------------

 SCF Done:  E(RB2PLYPD3) =  -132.535155588     A.U. after   11 cycles
 E2(B2PLYPD3) =    -0.1802576910D+00 E(B2PLYPD3) =    -0.13271541327942D+03

 The electronic state is 1-A.
 Alpha  occ. eigenvalues --  -14.84066 -10.67343 -10.66159  -1.04157  -0.88986
 Alpha  occ. eigenvalues --   -0.59174  -0.54254  -0.53638  -0.44695  -0.39172
 Alpha  occ. eigenvalues --   -0.39098
 Alpha virt. eigenvalues --    0.03735   0.07989   0.08146   0.10195   0.11375
 Alpha virt. eigenvalues --    0.11476   0.15256   0.15965   0.16472   0.20046
 Alpha virt. eigenvalues --    0.20106   0.25115   0.32596   0.34394   0.34701

 Mulliken charges:
               1
     1  C   -0.091788
     2  C   -0.003190
     3  N   -0.204966
     4  H    0.098487
     5  H    0.101939
     6  H    0.099519
 Sum of Mulliken charges =   0.00000

 Dipole moment (field-independent basis, Debye):
    X=              4.1204    Y=             -0.0142    Z=              0.0052  Tot=              4.1204
 Quadrupole moment (field-independent basis, Debye-Ang):
   XX=            -21.1223   YY=            -17.6339   ZZ=            -17.8070
   XY=              0.0444   XZ=              0.1069   YZ=             -0.0123

 Normal termination of Gaussian 09 at Thu Aug 27 00:57:24 2020.
