 Gaussian 09, Revision D.01,
 Gaussian 09:  ES64L-G09RevD.01 24-Apr-2013

 --------------------
 #p B2PLYPD3/Def2QZVP
 --------------------

 ------------
 cyanomethane
 ------------
 Symbolic Z-matrix:
 Charge =  0 Multiplicity = 1

                         Standard orientation:
 ---------------------------------------------------------------------
 Center     Atomic      Atomic             Coordinates (Angstroms)
 Number     Number       Type             X           Y           Z
 ---------------------------------------------------------------------
      1          6           0        1.157194   -0.040927   -0.024522
      2          6           0       -0.295328    0.062633    0.014442
      3          7           0       -1.412954   -0.020495   -0.002410
      4          1           0        1.490723   -0.470449   -0.842747
      5          1           0        1.542915   -0.548093    0.859311
      6          1           0        1.685841    1.031770    0.060786
 ---------------------------------------------------------------------

 SCF Done:  E(RB2PLYPD3) =  -132.519579230     A.U. after   12 cycles
 E2(B2PLYPD3) =    -0.1779272529D+00 E(B2PLYPD3) =    -0.13269750648264D+03

 The electronic state is 1-A.
 Alpha  occ. eigenvalues --  -14.83388 -10.66880 -10.65358  -1.05630  -0.89239
 Alpha  occ. eigenvalues --   -0.60565  -0.55501  -0.51269  -0.44834  -0.40285
 Alpha  occ. eigenvalues --   -0.39536
 Alpha virt. eigenvalues --    0.03691   0.07381   0.08883   0.10138   0.11615
 Alpha virt. eigenvalues --    0.12220   0.15611   0.16416   0.17419   0.19829
 Alpha virt. eigenvalues --    0.19955   0.25773   0.31510   0.34286   0.36006

 Mulliken charges:
               1
     1  C   -0.082575
     2  C   -0.001295
     3  N   -0.186285
     4  H    0.103416
     5  H    0.090668
     6  H    0.076071
 Sum of Mulliken charges =   0.00000

 Dipole moment (field-independent basis, Debye):
    X=              4.0366    Y=             -0.0068    Z=              0.0153  Tot=              4.0367
 Quadrupole moment (field-independent basis, Debye-Ang):
   XX=            -20.7852   YY=            -17.7779   ZZ=            -17.6439
   XY=             -0.0847   XZ=              0.0596   YZ=              0.0698

 Normal termination of Gaussian 09 at Wed Aug 26 23:14:20 2020.
