 Gaussian 09, Revision D.01,
 Gaussian 09:  ES64L-G09RevD.01 24-Apr-2013

 --------------------
 #p B2PLYPD3/Def2QZVP
 --------------------

 ------------
 cyanomethane
 ------------
 Symbolic Z-matrix:
 Charge =  0 Multiplicity = 1

                         Standard orientation:
 ---------------------------------------------------------------------
 Center     Atomic      Atomic             Coordinates (Angstroms)
 Number     Number       Type             X           Y           Z
 ---------------------------------------------------------------------
      1          6           0       -1.148247   -0.008708   -0.035363
      2          6           0        0.270939    0.064987   -0.004967
      3          7           0        1.424446   -0.029409    0.006414
      4          1           0       -1.532213   -0.869556   -0.560280
      5          1           0       -1.618716    0.906763   -0.332571
      6          1           0       -1.556342   -0.169021    1.089939
 ---------------------------------------------------------------------

 SCF Done:  E(RB2PLYPD3) =  -132.524965287     A.U. after   12 cycles
 E2(B2PLYPD3) =    -0.1814078587D+00 E(B2PLYPD3) =    -0.13270637314576D+03

 The electronic state is 1-A.
 Alpha  occ. eigenvalues --  -14.84383 -10.67576 -10.66313  -1.04204  -0.89251
 Alpha  occ. eigenvalues --   -0.60783  -0.55095  -0.51215  -0.44993  -0.39132
 Alpha  occ. eigenvalues --   -0.38349
 Alpha virt. eigenvalues --    0.03339   0.06584   0.07716   0.10003   0.11344
 Alpha virt. eigenvalues --    0.12141   0.15656   0.15972   0.17289   0.19968
 Alpha virt. eigenvalues --    0.20227   0.26183   0.31678   0.33492   0.35557

 Mulliken charges:
               1
     1  C   -0.084240
     2  C    0.007205
     3  N   -0.206194
     4  H    0.103054
     5  H    0.098146
     6  H    0.082029
 Sum of Mulliken charges =   0.00000

 Dipole moment (field-independent basis, Debye):
    X=             -4.0955    Y=              0.0347    Z=             -0.0060  Tot=              4.0957
 Quadrupole moment (field-independent basis, Debye-Ang):
   XX=            -20.8958   YY=            -17.6796   ZZ=            -17.9853
   XY=              0.1125   XZ=             -0.0672   YZ=              0.0506

 Normal termination of Gaussian 09 at Wed Aug 26 22:38:42 2020.
