 Gaussian 09, Revision D.01,
 Gaussian 09:  ES64L-G09RevD.01 24-Apr-2013

 --------------------
 #p B2PLYPD3/Def2QZVP
 --------------------

 ------------
 cyanomethane
 ------------
 Symbolic Z-matrix:
 Charge =  0 Multiplicity = 1

                         Standard orientation:
 ---------------------------------------------------------------------
 Center     Atomic      Atomic             Coordinates (Angstroms)
 Number     Number       Type             X           Y           Z
 ---------------------------------------------------------------------
      1          6           0       -1.179561   -0.004891    0.007939
      2          6           0        0.283404    0.037072   -0.000568
      3          7           0        1.420485   -0.020061   -0.002722
      4          1           0       -1.493261   -0.160996    0.964987
      5          1           0       -1.552358   -0.830236   -0.613223
      6          1           0       -1.520833    0.938575   -0.376936
 ---------------------------------------------------------------------

 SCF Done:  E(RB2PLYPD3) =  -132.532691399     A.U. after   11 cycles
 E2(B2PLYPD3) =    -0.1788044382D+00 E(B2PLYPD3) =    -0.13271149583749D+03

 The electronic state is 1-A.
 Alpha  occ. eigenvalues --  -14.83635 -10.66329 -10.65644  -1.04697  -0.89768
 Alpha  occ. eigenvalues --   -0.59414  -0.55327  -0.53926  -0.44629  -0.39550
 Alpha  occ. eigenvalues --   -0.39406
 Alpha virt. eigenvalues --    0.03847   0.08265   0.08979   0.10201   0.11454
 Alpha virt. eigenvalues --    0.11624   0.15461   0.15951   0.16623   0.19987
 Alpha virt. eigenvalues --    0.20075   0.25325   0.33015   0.34579   0.35387

 Mulliken charges:
               1
     1  C   -0.085010
     2  C   -0.006901
     3  N   -0.198962
     4  H    0.099309
     5  H    0.094387
     6  H    0.097178
 Sum of Mulliken charges =   0.00000

 Dipole moment (field-independent basis, Debye):
    X=             -4.0939    Y=              0.0244    Z=              0.0214  Tot=              4.0941
 Quadrupole moment (field-independent basis, Debye-Ang):
   XX=            -21.0512   YY=            -17.5635   ZZ=            -17.6879
   XY=              0.1521   XZ=              0.0135   YZ=             -0.0385

 Normal termination of Gaussian 09 at Wed Aug 26 14:01:48 2020.
