 Gaussian 09, Revision D.01,
 Gaussian 09:  ES64L-G09RevD.01 24-Apr-2013

 --------------------
 #p B2PLYPD3/Def2QZVP
 --------------------

 ------------
 cyanomethane
 ------------
 Symbolic Z-matrix:
 Charge =  0 Multiplicity = 1

                         Standard orientation:
 ---------------------------------------------------------------------
 Center     Atomic      Atomic             Coordinates (Angstroms)
 Number     Number       Type             X           Y           Z
 ---------------------------------------------------------------------
      1          6           0       -1.152633   -0.038650   -0.011142
      2          6           0        0.259437    0.037019   -0.028345
      3          7           0        1.428016   -0.007537    0.008034
      4          1           0       -1.525644   -0.869331   -0.531398
      5          1           0       -1.676833    0.986592   -0.402248
      6          1           0       -1.434460   -0.054715    1.114332
 ---------------------------------------------------------------------

 SCF Done:  E(RB2PLYPD3) =  -132.518486821     A.U. after   12 cycles
 E2(B2PLYPD3) =    -0.1827420511D+00 E(B2PLYPD3) =    -0.13270122887167D+03

 The electronic state is 1-A.
 Alpha  occ. eigenvalues --  -14.84577 -10.68255 -10.66552  -1.03648  -0.89224
 Alpha  occ. eigenvalues --   -0.60177  -0.54771  -0.51359  -0.44900  -0.38630
 Alpha  occ. eigenvalues --   -0.37934
 Alpha virt. eigenvalues --    0.03359   0.05972   0.07377   0.10002   0.11358
 Alpha virt. eigenvalues --    0.12017   0.15321   0.15706   0.16885   0.20098
 Alpha virt. eigenvalues --    0.20245   0.26139   0.31205   0.32790   0.35064

 Mulliken charges:
               1
     1  C   -0.102095
     2  C    0.008636
     3  N   -0.213501
     4  H    0.113990
     5  H    0.091397
     6  H    0.101572
 Sum of Mulliken charges =   0.00000

 Dipole moment (field-independent basis, Debye):
    X=             -4.1005    Y=             -0.0087    Z=              0.0277  Tot=              4.1006
 Quadrupole moment (field-independent basis, Debye-Ang):
   XX=            -21.2130   YY=            -17.7682   ZZ=            -17.8608
   XY=             -0.0597   XZ=              0.0063   YZ=              0.1580

 Normal termination of Gaussian 09 at Wed Aug 26 23:53:50 2020.
