 Gaussian 09, Revision D.01,
 Gaussian 09:  ES64L-G09RevD.01 24-Apr-2013

 --------------------
 #p B2PLYPD3/Def2QZVP
 --------------------

 ------------
 cyanomethane
 ------------
 Symbolic Z-matrix:
 Charge =  0 Multiplicity = 1

                         Standard orientation:
 ---------------------------------------------------------------------
 Center     Atomic      Atomic             Coordinates (Angstroms)
 Number     Number       Type             X           Y           Z
 ---------------------------------------------------------------------
      1          6           0        1.178842    0.001606    0.002777
      2          6           0       -0.279215   -0.017704    0.009725
      3          7           0       -1.430434    0.009972   -0.010504
      4          1           0        1.583694    0.895530   -0.495612
      5          1           0        1.564188   -0.874347   -0.503215
      6          1           0        1.467393    0.005606    0.997345
 ---------------------------------------------------------------------

 SCF Done:  E(RB2PLYPD3) =  -132.533565396     A.U. after   12 cycles
 E2(B2PLYPD3) =    -0.1800345925D+00 E(B2PLYPD3) =    -0.13271359998820D+03

 The electronic state is 1-A.
 Alpha  occ. eigenvalues --  -14.84071 -10.66604 -10.66115  -1.04212  -0.89665
 Alpha  occ. eigenvalues --   -0.59667  -0.55104  -0.53654  -0.44739  -0.39187
 Alpha  occ. eigenvalues --   -0.39105
 Alpha virt. eigenvalues --    0.03803   0.07789   0.08642   0.10196   0.11358
 Alpha virt. eigenvalues --    0.11519   0.15440   0.15871   0.16762   0.20072
 Alpha virt. eigenvalues --    0.20116   0.25353   0.32821   0.34627   0.35152

 Mulliken charges:
               1
     1  C   -0.082018
     2  C   -0.003048
     3  N   -0.205509
     4  H    0.094655
     5  H    0.095890
     6  H    0.100030
 Sum of Mulliken charges =   0.00000

 Dipole moment (field-independent basis, Debye):
    X=              4.1243    Y=             -0.0154    Z=              0.0311  Tot=              4.1245
 Quadrupole moment (field-independent basis, Debye-Ang):
   XX=            -20.9896   YY=            -17.7071   ZZ=            -17.7117
   XY=              0.0687   XZ=             -0.1126   YZ=              0.0169

 Normal termination of Gaussian 09 at Thu Aug 27 00:11:33 2020.
