 Gaussian 09, Revision D.01,
 Gaussian 09:  ES64L-G09RevD.01 24-Apr-2013

 --------------------
 #p B2PLYPD3/Def2QZVP
 --------------------

 ------------
 cyanomethane
 ------------
 Symbolic Z-matrix:
 Charge =  0 Multiplicity = 1

                         Standard orientation:
 ---------------------------------------------------------------------
 Center     Atomic      Atomic             Coordinates (Angstroms)
 Number     Number       Type             X           Y           Z
 ---------------------------------------------------------------------
      1          6           0        1.176352    0.003688   -0.006612
      2          6           0       -0.272463   -0.004972   -0.007260
      3          7           0       -1.431102    0.004610    0.004642
      4          1           0        1.503210   -0.899013   -0.522409
      5          1           0        1.532978   -0.034728    1.049855
      6          1           0        1.558190    0.909172   -0.476712
 ---------------------------------------------------------------------

 SCF Done:  E(RB2PLYPD3) =  -132.534366498     A.U. after   11 cycles
 E2(B2PLYPD3) =    -0.1809239021D+00 E(B2PLYPD3) =    -0.13271529039986D+03

 The electronic state is 1-A.
 Alpha  occ. eigenvalues --  -14.84211 -10.67347 -10.66255  -1.03916  -0.89279
 Alpha  occ. eigenvalues --   -0.59354  -0.54537  -0.53496  -0.44725  -0.38923
 Alpha  occ. eigenvalues --   -0.38761
 Alpha virt. eigenvalues --    0.03710   0.07621   0.07957   0.10151   0.11361
 Alpha virt. eigenvalues --    0.11570   0.15378   0.15886   0.16368   0.20095
 Alpha virt. eigenvalues --    0.20160   0.25461   0.32683   0.34023   0.34767

 Mulliken charges:
               1
     1  C   -0.093364
     2  C   -0.001110
     3  N   -0.208969
     4  H    0.102479
     5  H    0.098360
     6  H    0.102604
 Sum of Mulliken charges =   0.00000

 Dipole moment (field-independent basis, Debye):
    X=              4.1195    Y=             -0.0108    Z=              0.0004  Tot=              4.1195
 Quadrupole moment (field-independent basis, Debye-Ang):
   XX=            -21.1791   YY=            -17.6649   ZZ=            -17.7790
   XY=              0.0576   XZ=              0.0480   YZ=             -0.0002

 Normal termination of Gaussian 09 at Thu Aug 27 00:14:48 2020.
