 Gaussian 09, Revision D.01,
 Gaussian 09:  ES64L-G09RevD.01 24-Apr-2013

 --------------------
 #p B2PLYPD3/Def2QZVP
 --------------------

 ------------
 cyanomethane
 ------------
 Symbolic Z-matrix:
 Charge =  0 Multiplicity = 1

                         Standard orientation:
 ---------------------------------------------------------------------
 Center     Atomic      Atomic             Coordinates (Angstroms)
 Number     Number       Type             X           Y           Z
 ---------------------------------------------------------------------
      1          6           0        1.182439   -0.001121   -0.013677
      2          6           0       -0.284682   -0.042273    0.004448
      3          7           0       -1.432451    0.020189    0.002861
      4          1           0        1.598957    0.088254    0.990315
      5          1           0        1.493359    0.920914   -0.517275
      6          1           0        1.548303   -0.890124   -0.437689
 ---------------------------------------------------------------------

 SCF Done:  E(RB2PLYPD3) =  -132.533745800     A.U. after   11 cycles
 E2(B2PLYPD3) =    -0.1799681047D+00 E(B2PLYPD3) =    -0.13271371390482D+03

 The electronic state is 1-A.
 Alpha  occ. eigenvalues --  -14.84045 -10.66892 -10.66115  -1.04295  -0.89278
 Alpha  occ. eigenvalues --   -0.59615  -0.55388  -0.52787  -0.44745  -0.39389
 Alpha  occ. eigenvalues --   -0.39066
 Alpha virt. eigenvalues --    0.03741   0.07830   0.08527   0.10209   0.11169
 Alpha virt. eigenvalues --    0.11716   0.15281   0.16343   0.16477   0.19945
 Alpha virt. eigenvalues --    0.20150   0.25256   0.32803   0.34150   0.35378

 Mulliken charges:
               1
     1  C   -0.081331
     2  C   -0.002645
     3  N   -0.203784
     4  H    0.089016
     5  H    0.098496
     6  H    0.100248
 Sum of Mulliken charges =   0.00000

 Dipole moment (field-independent basis, Debye):
    X=              4.1232    Y=             -0.0163    Z=              0.0242  Tot=              4.1233
 Quadrupole moment (field-independent basis, Debye-Ang):
   XX=            -20.9721   YY=            -17.5309   ZZ=            -17.9304
   XY=              0.1044   XZ=              0.1528   YZ=              0.0338

 Normal termination of Gaussian 09 at Wed Aug 26 13:48:22 2020.
