 Gaussian 09, Revision D.01,
 Gaussian 09:  ES64L-G09RevD.01 24-Apr-2013

 --------------------
 #p B2PLYPD3/Def2QZVP
 --------------------

 ------------
 cyanomethane
 ------------
 Symbolic Z-matrix:
 Charge =  0 Multiplicity = 1

                         Standard orientation:
 ---------------------------------------------------------------------
 Center     Atomic      Atomic             Coordinates (Angstroms)
 Number     Number       Type             X           Y           Z
 ---------------------------------------------------------------------
      1          6           0       -1.177300    0.007157    0.002767
      2          6           0        0.278066    0.018822   -0.007255
      3          7           0        1.439877   -0.014116    0.000446
      4          1           0       -1.524522    0.992413   -0.201834
      5          1           0       -1.535179   -0.337655    0.966571
      6          1           0       -1.624038   -0.711822   -0.740937
 ---------------------------------------------------------------------

 SCF Done:  E(RB2PLYPD3) =  -132.532939509     A.U. after   12 cycles
 E2(B2PLYPD3) =    -0.1812290642D+00 E(B2PLYPD3) =    -0.13271416857318D+03

 The electronic state is 1-A.
 Alpha  occ. eigenvalues --  -14.84462 -10.67194 -10.66535  -1.03843  -0.89232
 Alpha  occ. eigenvalues --   -0.59965  -0.54805  -0.52755  -0.44866  -0.38990
 Alpha  occ. eigenvalues --   -0.38772
 Alpha virt. eigenvalues --    0.03690   0.07279   0.08087   0.10151   0.11203
 Alpha virt. eigenvalues --    0.11591   0.15394   0.16153   0.16651   0.20051
 Alpha virt. eigenvalues --    0.20194   0.25390   0.32547   0.34203   0.35016

 Mulliken charges:
               1
     1  C   -0.080440
     2  C    0.000704
     3  N   -0.209311
     4  H    0.100431
     5  H    0.096549
     6  H    0.092067
 Sum of Mulliken charges =   0.00000

 Dipole moment (field-independent basis, Debye):
    X=             -4.1414    Y=              0.0129    Z=              0.0155  Tot=              4.1414
 Quadrupole moment (field-independent basis, Debye-Ang):
   XX=            -20.9404   YY=            -17.7128   ZZ=            -17.8939
   XY=              0.1583   XZ=              0.0141   YZ=             -0.0513

 Normal termination of Gaussian 09 at Thu Aug 27 00:03:58 2020.
