 Gaussian 09, Revision D.01,
 Gaussian 09:  ES64L-G09RevD.01 24-Apr-2013

 --------------------
 #p B2PLYPD3/Def2QZVP
 --------------------

 ------------
 cyanomethane
 ------------
 Symbolic Z-matrix:
 Charge =  0 Multiplicity = 1

                         Standard orientation:
 ---------------------------------------------------------------------
 Center     Atomic      Atomic             Coordinates (Angstroms)
 Number     Number       Type             X           Y           Z
 ---------------------------------------------------------------------
      1          6           0       -1.181037    0.006848    0.002758
      2          6           0        0.292516   -0.013820   -0.029793
      3          7           0        1.436317    0.005122    0.009006
      4          1           0       -1.586493    1.002433   -0.331251
      5          1           0       -1.491603   -0.179462    1.067871
      6          1           0       -1.644996   -0.816995   -0.637449
 ---------------------------------------------------------------------

 SCF Done:  E(RB2PLYPD3) =  -132.531572111     A.U. after   12 cycles
 E2(B2PLYPD3) =    -0.1802363627D+00 E(B2PLYPD3) =    -0.13271180847374D+03

 The electronic state is 1-A.
 Alpha  occ. eigenvalues --  -14.83999 -10.68499 -10.66132  -1.04525  -0.87940
 Alpha  occ. eigenvalues --   -0.59035  -0.53050  -0.52521  -0.44789  -0.39356
 Alpha  occ. eigenvalues --   -0.39237
 Alpha virt. eigenvalues --    0.03507   0.07480   0.07714   0.10225   0.11548
 Alpha virt. eigenvalues --    0.11700   0.15188   0.16180   0.16740   0.19997
 Alpha virt. eigenvalues --    0.20032   0.25104   0.32148   0.33876   0.34235

 Mulliken charges:
               1
     1  C   -0.099379
     2  C   -0.000426
     3  N   -0.198961
     4  H    0.100985
     5  H    0.100998
     6  H    0.096783
 Sum of Mulliken charges =   0.00000

 Dipole moment (field-independent basis, Debye):
    X=             -4.1025    Y=             -0.0079    Z=              0.0047  Tot=              4.1025
 Quadrupole moment (field-independent basis, Debye-Ang):
   XX=            -21.0596   YY=            -17.7625   ZZ=            -17.8309
   XY=             -0.0029   XZ=              0.0162   YZ=             -0.0233

 Normal termination of Gaussian 09 at Wed Aug 26 14:54:42 2020.
