 Gaussian 09, Revision D.01,
 Gaussian 09:  ES64L-G09RevD.01 24-Apr-2013

 --------------------
 #p B2PLYPD3/Def2QZVP
 --------------------

 ------------
 cyanomethane
 ------------
 Symbolic Z-matrix:
 Charge =  0 Multiplicity = 1

                         Standard orientation:
 ---------------------------------------------------------------------
 Center     Atomic      Atomic             Coordinates (Angstroms)
 Number     Number       Type             X           Y           Z
 ---------------------------------------------------------------------
      1          6           0        1.187828    0.025038   -0.008833
      2          6           0       -0.277617   -0.016694   -0.069485
      3          7           0       -1.447052    0.000063    0.036463
      4          1           0        1.477710    1.064552    0.070898
      5          1           0        1.605442   -0.556960   -0.783667
      6          1           0        1.584943   -0.558093    0.927435
 ---------------------------------------------------------------------

 SCF Done:  E(RB2PLYPD3) =  -132.524616107     A.U. after   12 cycles
 E2(B2PLYPD3) =    -0.1826627110D+00 E(B2PLYPD3) =    -0.13270727881802D+03

 The electronic state is 1-A.
 Alpha  occ. eigenvalues --  -14.84816 -10.67713 -10.66911  -1.03351  -0.88889
 Alpha  occ. eigenvalues --   -0.59626  -0.55826  -0.51334  -0.44878  -0.38866
 Alpha  occ. eigenvalues --   -0.38270
 Alpha virt. eigenvalues --    0.03281   0.06844   0.08029   0.10123   0.10784
 Alpha virt. eigenvalues --    0.11600   0.15175   0.15920   0.16623   0.19996
 Alpha virt. eigenvalues --    0.20245   0.25392   0.32204   0.32915   0.35468

 Mulliken charges:
               1
     1  C   -0.087757
     2  C    0.004769
     3  N   -0.214139
     4  H    0.109711
     5  H    0.099459
     6  H    0.087956
 Sum of Mulliken charges =   0.00000

 Dipole moment (field-independent basis, Debye):
    X=              4.1400    Y=             -0.0312    Z=             -0.0419  Tot=              4.1403
 Quadrupole moment (field-independent basis, Debye-Ang):
   XX=            -21.0579   YY=            -17.5695   ZZ=            -18.1278
   XY=             -0.2122   XZ=              0.2014   YZ=              0.1038

 Normal termination of Gaussian 09 at Wed Aug 26 21:05:03 2020.
