 Gaussian 09, Revision D.01,
 Gaussian 09:  ES64L-G09RevD.01 24-Apr-2013

 --------------------
 #p B2PLYPD3/Def2QZVP
 --------------------

 ------------
 cyanomethane
 ------------
 Symbolic Z-matrix:
 Charge =  0 Multiplicity = 1

                         Standard orientation:
 ---------------------------------------------------------------------
 Center     Atomic      Atomic             Coordinates (Angstroms)
 Number     Number       Type             X           Y           Z
 ---------------------------------------------------------------------
      1          6           0       -1.179553    0.006166   -0.002155
      2          6           0        0.282297    0.009120   -0.002453
      3          7           0        1.432735   -0.001662    0.000426
      4          1           0       -1.519836   -0.318713    0.973508
      5          1           0       -1.524513   -0.748367   -0.718579
      6          1           0       -1.601259    0.986994   -0.230267
 ---------------------------------------------------------------------

 SCF Done:  E(RB2PLYPD3) =  -132.535594973     A.U. after   12 cycles
 E2(B2PLYPD3) =    -0.1801294961D+00 E(B2PLYPD3) =    -0.13271572446899D+03

 The electronic state is 1-A.
 Alpha  occ. eigenvalues --  -14.84058 -10.67190 -10.66139  -1.04254  -0.89128
 Alpha  occ. eigenvalues --   -0.59536  -0.54224  -0.53557  -0.44747  -0.39250
 Alpha  occ. eigenvalues --   -0.39069
 Alpha virt. eigenvalues --    0.03758   0.07945   0.08097   0.10202   0.11377
 Alpha virt. eigenvalues --    0.11616   0.15370   0.15978   0.16728   0.20037
 Alpha virt. eigenvalues --    0.20116   0.25256   0.32698   0.34310   0.34965

 Mulliken charges:
               1
     1  C   -0.086474
     2  C   -0.002339
     3  N   -0.204191
     4  H    0.096534
     5  H    0.096998
     6  H    0.099473
 Sum of Mulliken charges =   0.00000

 Dipole moment (field-independent basis, Debye):
    X=             -4.1242    Y=             -0.0188    Z=              0.0141  Tot=              4.1243
 Quadrupole moment (field-independent basis, Debye-Ang):
   XX=            -21.0212   YY=            -17.6424   ZZ=            -17.8304
   XY=             -0.0041   XZ=             -0.0194   YZ=             -0.0105

 Normal termination of Gaussian 09 at Thu Aug 27 00:13:23 2020.
