 Gaussian 09, Revision D.01,
 Gaussian 09:  ES64L-G09RevD.01 24-Apr-2013

 --------------------
 #p B2PLYPD3/Def2QZVP
 --------------------

 ------------
 cyanomethane
 ------------
 Symbolic Z-matrix:
 Charge =  0 Multiplicity = 1

                         Standard orientation:
 ---------------------------------------------------------------------
 Center     Atomic      Atomic             Coordinates (Angstroms)
 Number     Number       Type             X           Y           Z
 ---------------------------------------------------------------------
      1          6           0       -1.177433   -0.004092    0.008241
      2          6           0        0.283803    0.033389   -0.007360
      3          7           0        1.418534   -0.012014    0.005745
      4          1           0       -1.551757   -0.148467    1.002276
      5          1           0       -1.449511   -0.920665   -0.619097
      6          1           0       -1.566690    0.977453   -0.428681
 ---------------------------------------------------------------------

 SCF Done:  E(RB2PLYPD3) =  -132.531005120     A.U. after   12 cycles
 E2(B2PLYPD3) =    -0.1792953904D+00 E(B2PLYPD3) =    -0.13271030051050D+03

 The electronic state is 1-A.
 Alpha  occ. eigenvalues --  -14.83516 -10.68019 -10.65568  -1.04784  -0.88571
 Alpha  occ. eigenvalues --   -0.58764  -0.53595  -0.53253  -0.44576  -0.39440
 Alpha  occ. eigenvalues --   -0.39272
 Alpha virt. eigenvalues --    0.03571   0.07865   0.08113   0.10195   0.11659
 Alpha virt. eigenvalues --    0.11887   0.15229   0.15918   0.16391   0.19961
 Alpha virt. eigenvalues --    0.20071   0.25298   0.32349   0.33523   0.34478

 Mulliken charges:
               1
     1  C   -0.110192
     2  C   -0.004193
     3  N   -0.196533
     4  H    0.104438
     5  H    0.103766
     6  H    0.102713
 Sum of Mulliken charges =   0.00000

 Dipole moment (field-independent basis, Debye):
    X=             -4.0611    Y=              0.0022    Z=              0.0184  Tot=              4.0612
 Quadrupole moment (field-independent basis, Debye-Ang):
   XX=            -21.3360   YY=            -17.5094   ZZ=            -17.7786
   XY=              0.0180   XZ=             -0.1483   YZ=             -0.0152

 Normal termination of Gaussian 09 at Wed Aug 26 11:44:08 2020.
