 Gaussian 09, Revision D.01,
 Gaussian 09:  ES64L-G09RevD.01 24-Apr-2013

 --------------------
 #p B2PLYPD3/Def2QZVP
 --------------------

 ------------
 cyanomethane
 ------------
 Symbolic Z-matrix:
 Charge =  0 Multiplicity = 1

                         Standard orientation:
 ---------------------------------------------------------------------
 Center     Atomic      Atomic             Coordinates (Angstroms)
 Number     Number       Type             X           Y           Z
 ---------------------------------------------------------------------
      1          6           0       -1.167742   -0.009287   -0.002492
      2          6           0        0.281058    0.014652   -0.004172
      3          7           0        1.429377   -0.002957    0.005355
      4          1           0       -1.576695   -0.429996    0.935179
      5          1           0       -1.500743   -0.607121   -0.832368
      6          1           0       -1.608093    1.025626   -0.100316
 ---------------------------------------------------------------------

 SCF Done:  E(RB2PLYPD3) =  -132.534355113     A.U. after   11 cycles
 E2(B2PLYPD3) =    -0.1801615050D+00 E(B2PLYPD3) =    -0.13271451661842D+03

 The electronic state is 1-A.
 Alpha  occ. eigenvalues --  -14.84061 -10.67415 -10.66093  -1.04409  -0.89020
 Alpha  occ. eigenvalues --   -0.59876  -0.54159  -0.52833  -0.44825  -0.39221
 Alpha  occ. eigenvalues --   -0.39087
 Alpha virt. eigenvalues --    0.03695   0.07459   0.08030   0.10173   0.11551
 Alpha virt. eigenvalues --    0.11707   0.15462   0.16316   0.16655   0.20035
 Alpha virt. eigenvalues --    0.20089   0.25525   0.32655   0.34212   0.34776

 Mulliken charges:
               1
     1  C   -0.085280
     2  C   -0.000798
     3  N   -0.202415
     4  H    0.095766
     5  H    0.100025
     6  H    0.092701
 Sum of Mulliken charges =   0.00000

 Dipole moment (field-independent basis, Debye):
    X=             -4.1115    Y=             -0.0059    Z=             -0.0097  Tot=              4.1115
 Quadrupole moment (field-independent basis, Debye-Ang):
   XX=            -20.9562   YY=            -17.7782   ZZ=            -17.7535
   XY=             -0.0269   XZ=             -0.0791   YZ=              0.0375

 Normal termination of Gaussian 09 at Wed Aug 26 23:58:41 2020.
