 Gaussian 09, Revision D.01,
 Gaussian 09:  ES64L-G09RevD.01 24-Apr-2013

 --------------------
 #p B2PLYPD3/Def2QZVP
 --------------------

 ------------
 cyanomethane
 ------------
 Symbolic Z-matrix:
 Charge =  0 Multiplicity = 1

                         Standard orientation:
 ---------------------------------------------------------------------
 Center     Atomic      Atomic             Coordinates (Angstroms)
 Number     Number       Type             X           Y           Z
 ---------------------------------------------------------------------
      1          6           0        1.178283    0.001485   -0.037613
      2          6           0       -0.287911    0.059044    0.007482
      3          7           0       -1.448289   -0.035783   -0.003927
      4          1           0        1.539420    0.950531    0.040837
      5          1           0        1.687364   -0.560389   -0.731174
      6          1           0        1.569003   -0.502840    0.898610
 ---------------------------------------------------------------------

 SCF Done:  E(RB2PLYPD3) =  -132.520419707     A.U. after   12 cycles
 E2(B2PLYPD3) =    -0.1814974815D+00 E(B2PLYPD3) =    -0.13270191718877D+03

 The electronic state is 1-A.
 Alpha  occ. eigenvalues --  -14.84764 -10.66926 -10.66279  -1.03908  -0.89768
 Alpha  occ. eigenvalues --   -0.61751  -0.55706  -0.51497  -0.45101  -0.39322
 Alpha  occ. eigenvalues --   -0.38692
 Alpha virt. eigenvalues --    0.03606   0.07093   0.08337   0.09890   0.11070
 Alpha virt. eigenvalues --    0.11826   0.15475   0.15938   0.18096   0.20015
 Alpha virt. eigenvalues --    0.20560   0.25376   0.32586   0.33514   0.36119

 Mulliken charges:
               1
     1  C   -0.057641
     2  C    0.012134
     3  N   -0.209195
     4  H    0.090912
     5  H    0.091108
     6  H    0.072682
 Sum of Mulliken charges =   0.00000

 Dipole moment (field-independent basis, Debye):
    X=              4.1629    Y=              0.0278    Z=              0.0439  Tot=              4.1632
 Quadrupole moment (field-independent basis, Debye-Ang):
   XX=            -20.4794   YY=            -17.7360   ZZ=            -18.1028
   XY=             -0.3248   XZ=              0.0311   YZ=              0.1015

 Normal termination of Gaussian 09 at Wed Aug 26 16:09:13 2020.
