 Gaussian 09, Revision D.01,
 Gaussian 09:  ES64L-G09RevD.01 24-Apr-2013

 --------------------
 #p B2PLYPD3/Def2QZVP
 --------------------

 ------------
 cyanomethane
 ------------
 Symbolic Z-matrix:
 Charge =  0 Multiplicity = 1

                         Standard orientation:
 ---------------------------------------------------------------------
 Center     Atomic      Atomic             Coordinates (Angstroms)
 Number     Number       Type             X           Y           Z
 ---------------------------------------------------------------------
      1          6           0       -1.182185   -0.006416   -0.000203
      2          6           0        0.270815    0.005322    0.038378
      3          7           0        1.430762   -0.006332   -0.024699
      4          1           0       -1.456563   -0.094333    0.980402
      5          1           0       -1.598711   -0.828155   -0.610105
      6          1           0       -1.491833    0.973379   -0.426458
 ---------------------------------------------------------------------

 SCF Done:  E(RB2PLYPD3) =  -132.529324893     A.U. after   12 cycles
 E2(B2PLYPD3) =    -0.1810598566D+00 E(B2PLYPD3) =    -0.13271038474944D+03

 The electronic state is 1-A.
 Alpha  occ. eigenvalues --  -14.84268 -10.66825 -10.66304  -1.03791  -0.89784
 Alpha  occ. eigenvalues --   -0.59234  -0.55510  -0.53572  -0.44693  -0.38875
 Alpha  occ. eigenvalues --   -0.38727
 Alpha virt. eigenvalues --    0.03674   0.07396   0.08712   0.10113   0.11187
 Alpha virt. eigenvalues --    0.11496   0.15330   0.15407   0.16732   0.20113
 Alpha virt. eigenvalues --    0.20195   0.25466   0.32714   0.34132   0.35006

 Mulliken charges:
               1
     1  C   -0.093733
     2  C   -0.001146
     3  N   -0.211284
     4  H    0.105372
     5  H    0.100254
     6  H    0.100538
 Sum of Mulliken charges =   0.00000

 Dipole moment (field-independent basis, Debye):
    X=             -4.1173    Y=              0.0115    Z=              0.0487  Tot=              4.1176
 Quadrupole moment (field-independent basis, Debye-Ang):
   XX=            -21.1903   YY=            -17.6758   ZZ=            -17.7137
   XY=              0.1027   XZ=              0.1769   YZ=             -0.0104

 Normal termination of Gaussian 09 at Wed Aug 26 16:00:18 2020.
