 Gaussian 09, Revision D.01,
 Gaussian 09:  ES64L-G09RevD.01 24-Apr-2013

 --------------------
 #p B2PLYPD3/Def2QZVP
 --------------------

 ------------
 cyanomethane
 ------------
 Symbolic Z-matrix:
 Charge =  0 Multiplicity = 1

                         Standard orientation:
 ---------------------------------------------------------------------
 Center     Atomic      Atomic             Coordinates (Angstroms)
 Number     Number       Type             X           Y           Z
 ---------------------------------------------------------------------
      1          6           0       -1.189245    0.023382    0.027795
      2          6           0        0.262800   -0.059712    0.001708
      3          7           0        1.449367    0.028839   -0.002336
      4          1           0       -1.546099   -0.039736    0.958375
      5          1           0       -1.516144   -0.925511   -0.594399
      6          1           0       -1.524655    0.981357   -0.524637
 ---------------------------------------------------------------------

 SCF Done:  E(RB2PLYPD3) =  -132.514939595     A.U. after   12 cycles
 E2(B2PLYPD3) =    -0.1841418507D+00 E(B2PLYPD3) =    -0.13269908144537D+03

 The electronic state is 1-A.
 Alpha  occ. eigenvalues --  -14.85123 -10.67906 -10.67244  -1.02728  -0.89224
 Alpha  occ. eigenvalues --   -0.60135  -0.54719  -0.52300  -0.44836  -0.38336
 Alpha  occ. eigenvalues --   -0.37820
 Alpha virt. eigenvalues --    0.03298   0.06457   0.07653   0.09904   0.10953
 Alpha virt. eigenvalues --    0.11307   0.15126   0.15278   0.16611   0.20223
 Alpha virt. eigenvalues --    0.20252   0.25568   0.31356   0.32862   0.34442

 Mulliken charges:
               1
     1  C   -0.104730
     2  C    0.009860
     3  N   -0.222140
     4  H    0.112250
     5  H    0.096986
     6  H    0.107773
 Sum of Mulliken charges =   0.00000

 Dipole moment (field-independent basis, Debye):
    X=             -4.1323    Y=             -0.0311    Z=              0.0195  Tot=              4.1324
 Quadrupole moment (field-independent basis, Debye-Ang):
   XX=            -21.3438   YY=            -17.7584   ZZ=            -17.8820
   XY=             -0.1397   XZ=             -0.0560   YZ=             -0.0534

 Normal termination of Gaussian 09 at Wed Aug 26 23:52:38 2020.
