 Gaussian 09, Revision D.01,
 Gaussian 09:  ES64L-G09RevD.01 24-Apr-2013

 --------------------
 #p B2PLYPD3/Def2QZVP
 --------------------

 ------------
 cyanomethane
 ------------
 Symbolic Z-matrix:
 Charge =  0 Multiplicity = 1

                         Standard orientation:
 ---------------------------------------------------------------------
 Center     Atomic      Atomic             Coordinates (Angstroms)
 Number     Number       Type             X           Y           Z
 ---------------------------------------------------------------------
      1          6           0       -1.172671    0.011717    0.011514
      2          6           0        0.282806    0.042624    0.034826
      3          7           0        1.416810   -0.029534   -0.025156
      4          1           0       -1.639423   -0.640529   -0.798583
      5          1           0       -1.455828    0.949664   -0.165418
      6          1           0       -1.483229   -0.428442    0.862056
 ---------------------------------------------------------------------

 SCF Done:  E(RB2PLYPD3) =  -132.519975828     A.U. after   12 cycles
 E2(B2PLYPD3) =    -0.1788106630D+00 E(B2PLYPD3) =    -0.13269878649066D+03

 The electronic state is 1-A.
 Alpha  occ. eigenvalues --  -14.83692 -10.65678 -10.65615  -1.04813  -0.90437
 Alpha  occ. eigenvalues --   -0.59871  -0.57717  -0.52244  -0.44713  -0.39789
 Alpha  occ. eigenvalues --   -0.39196
 Alpha virt. eigenvalues --    0.03634   0.07860   0.09621   0.10186   0.11186
 Alpha virt. eigenvalues --    0.11844   0.15583   0.15922   0.17057   0.19923
 Alpha virt. eigenvalues --    0.20152   0.25534   0.32856   0.34216   0.36524

 Mulliken charges:
               1
     1  C   -0.077985
     2  C   -0.005012
     3  N   -0.198095
     4  H    0.081160
     5  H    0.101749
     6  H    0.098184
 Sum of Mulliken charges =   0.00000

 Dipole moment (field-independent basis, Debye):
    X=             -4.0850    Y=              0.0352    Z=              0.0506  Tot=              4.0854
 Quadrupole moment (field-independent basis, Debye-Ang):
   XX=            -20.8770   YY=            -17.5203   ZZ=            -17.7618
   XY=              0.3026   XZ=              0.2229   YZ=             -0.1619

 Normal termination of Gaussian 09 at Wed Aug 26 18:36:06 2020.
