 Gaussian 09, Revision D.01,
 Gaussian 09:  ES64L-G09RevD.01 24-Apr-2013

 --------------------
 #p B2PLYPD3/Def2QZVP
 --------------------

 ------------
 cyanomethane
 ------------
 Symbolic Z-matrix:
 Charge =  0 Multiplicity = 1

                         Standard orientation:
 ---------------------------------------------------------------------
 Center     Atomic      Atomic             Coordinates (Angstroms)
 Number     Number       Type             X           Y           Z
 ---------------------------------------------------------------------
      1          6           0        1.169703    0.000231   -0.003440
      2          6           0       -0.282349   -0.005168    0.012677
      3          7           0       -1.429676    0.005738   -0.006009
      4          1           0        1.597854    0.986035   -0.352059
      5          1           0        1.527891   -0.802497   -0.679668
      6          1           0        1.557856   -0.194084    1.018371
 ---------------------------------------------------------------------

 SCF Done:  E(RB2PLYPD3) =  -132.533994810     A.U. after   12 cycles
 E2(B2PLYPD3) =    -0.1802419605D+00 E(B2PLYPD3) =    -0.13271423677089D+03

 The electronic state is 1-A.
 Alpha  occ. eigenvalues --  -14.84025 -10.67839 -10.66069  -1.04428  -0.88680
 Alpha  occ. eigenvalues --   -0.59533  -0.53521  -0.52994  -0.44802  -0.39162
 Alpha  occ. eigenvalues --   -0.39138
 Alpha virt. eigenvalues --    0.03619   0.07461   0.07843   0.10167   0.11630
 Alpha virt. eigenvalues --    0.11675   0.15413   0.16152   0.16693   0.20042
 Alpha virt. eigenvalues --    0.20070   0.25459   0.32630   0.34167   0.34273

 Mulliken charges:
               1
     1  C   -0.092408
     2  C   -0.000774
     3  N   -0.201513
     4  H    0.097366
     5  H    0.099638
     6  H    0.097691
 Sum of Mulliken charges =   0.00000

 Dipole moment (field-independent basis, Debye):
    X=              4.1033    Y=             -0.0163    Z=              0.0128  Tot=              4.1034
 Quadrupole moment (field-independent basis, Debye-Ang):
   XX=            -21.0393   YY=            -17.7514   ZZ=            -17.7761
   XY=              0.0685   XZ=             -0.0194   YZ=              0.0155

 Normal termination of Gaussian 09 at Wed Aug 26 23:59:07 2020.
