 Gaussian 09, Revision D.01,
 Gaussian 09:  ES64L-G09RevD.01 24-Apr-2013

 --------------------
 #p B2PLYPD3/Def2QZVP
 --------------------

 ------------
 cyanomethane
 ------------
 Symbolic Z-matrix:
 Charge =  0 Multiplicity = 1

                         Standard orientation:
 ---------------------------------------------------------------------
 Center     Atomic      Atomic             Coordinates (Angstroms)
 Number     Number       Type             X           Y           Z
 ---------------------------------------------------------------------
      1          6           0        1.180519   -0.022132   -0.033140
      2          6           0       -0.299941    0.023656    0.049426
      3          7           0       -1.438972   -0.005344   -0.010488
      4          1           0        1.658009    1.039697   -0.034872
      5          1           0        1.414574   -0.523078   -0.852829
      6          1           0        1.716750   -0.488356    0.863402
 ---------------------------------------------------------------------

 SCF Done:  E(RB2PLYPD3) =  -132.520767289     A.U. after   12 cycles
 E2(B2PLYPD3) =    -0.1797162952D+00 E(B2PLYPD3) =    -0.13270048358400D+03

 The electronic state is 1-A.
 Alpha  occ. eigenvalues --  -14.84036 -10.67549 -10.66177  -1.04776  -0.88694
 Alpha  occ. eigenvalues --   -0.59812  -0.55425  -0.50905  -0.44894  -0.39832
 Alpha  occ. eigenvalues --   -0.39273
 Alpha virt. eigenvalues --    0.03605   0.07117   0.08389   0.10322   0.11389
 Alpha virt. eigenvalues --    0.11821   0.15191   0.16684   0.16946   0.19859
 Alpha virt. eigenvalues --    0.20080   0.25136   0.31785   0.33271   0.35833

 Mulliken charges:
               1
     1  C   -0.084628
     2  C    0.001420
     3  N   -0.197564
     4  H    0.085779
     5  H    0.109708
     6  H    0.085286
 Sum of Mulliken charges =   0.00000

 Dipole moment (field-independent basis, Debye):
    X=              4.1117    Y=             -0.0033    Z=              0.0110  Tot=              4.1117
 Quadrupole moment (field-independent basis, Debye-Ang):
   XX=            -20.7215   YY=            -17.8579   ZZ=            -17.8341
   XY=              0.0372   XZ=              0.1445   YZ=              0.1462

 Normal termination of Gaussian 09 at Wed Aug 26 23:30:44 2020.
