 Gaussian 09, Revision D.01,
 Gaussian 09:  ES64L-G09RevD.01 24-Apr-2013

 --------------------
 #p B2PLYPD3/Def2QZVP
 --------------------

 ------------
 cyanomethane
 ------------
 Symbolic Z-matrix:
 Charge =  0 Multiplicity = 1

                         Standard orientation:
 ---------------------------------------------------------------------
 Center     Atomic      Atomic             Coordinates (Angstroms)
 Number     Number       Type             X           Y           Z
 ---------------------------------------------------------------------
      1          6           0       -1.180652    0.003796    0.004188
      2          6           0        0.277305   -0.006370   -0.039893
      3          7           0        1.427429    0.000336    0.018933
      4          1           0       -1.504149   -0.047218    0.994037
      5          1           0       -1.565515   -0.849068   -0.497559
      6          1           0       -1.502254    0.909376   -0.414778
 ---------------------------------------------------------------------

 SCF Done:  E(RB2PLYPD3) =  -132.533041657     A.U. after   11 cycles
 E2(B2PLYPD3) =    -0.1797553004D+00 E(B2PLYPD3) =    -0.13271279695701D+03

 The electronic state is 1-A.
 Alpha  occ. eigenvalues --  -14.84026 -10.66055 -10.65925  -1.04199  -0.90147
 Alpha  occ. eigenvalues --   -0.59830  -0.55475  -0.54424  -0.44703  -0.39239
 Alpha  occ. eigenvalues --   -0.39117
 Alpha virt. eigenvalues --    0.03928   0.08309   0.08641   0.10193   0.11241
 Alpha virt. eigenvalues --    0.11524   0.15492   0.16185   0.16335   0.20044
 Alpha virt. eigenvalues --    0.20130   0.25406   0.33013   0.35067   0.35407

 Mulliken charges:
               1
     1  C   -0.074818
     2  C   -0.003637
     3  N   -0.206359
     4  H    0.093622
     5  H    0.093958
     6  H    0.097234
 Sum of Mulliken charges =   0.00000

 Dipole moment (field-independent basis, Debye):
    X=             -4.1242    Y=             -0.0011    Z=             -0.0014  Tot=              4.1242
 Quadrupole moment (field-independent basis, Debye-Ang):
   XX=            -20.9763   YY=            -17.5605   ZZ=            -17.7711
   XY=              0.0472   XZ=             -0.1413   YZ=             -0.0163

 Normal termination of Gaussian 09 at Wed Aug 26 11:16:36 2020.
