 Gaussian 09, Revision D.01,
 Gaussian 09:  ES64L-G09RevD.01 24-Apr-2013

 --------------------
 #p B2PLYPD3/Def2QZVP
 --------------------

 ------------
 cyanomethane
 ------------
 Symbolic Z-matrix:
 Charge =  0 Multiplicity = 1

                         Standard orientation:
 ---------------------------------------------------------------------
 Center     Atomic      Atomic             Coordinates (Angstroms)
 Number     Number       Type             X           Y           Z
 ---------------------------------------------------------------------
      1          6           0        1.184244   -0.002015    0.006661
      2          6           0       -0.278273    0.022265   -0.003559
      3          7           0       -1.437648   -0.010065    0.001746
      4          1           0        1.557497    0.965625   -0.356889
      5          1           0        1.523558   -0.809315   -0.685950
      6          1           0        1.546660   -0.207360    1.012009
 ---------------------------------------------------------------------

 SCF Done:  E(RB2PLYPD3) =  -132.534315142     A.U. after   11 cycles
 E2(B2PLYPD3) =    -0.1810696489D+00 E(B2PLYPD3) =    -0.13271538479117D+03

 The electronic state is 1-A.
 Alpha  occ. eigenvalues --  -14.84300 -10.67585 -10.66390  -1.03860  -0.88927
 Alpha  occ. eigenvalues --   -0.59211  -0.54151  -0.53468  -0.44746  -0.38957
 Alpha  occ. eigenvalues --   -0.38835
 Alpha virt. eigenvalues --    0.03669   0.07674   0.07872   0.10169   0.11306
 Alpha virt. eigenvalues --    0.11466   0.15281   0.16000   0.16317   0.20087
 Alpha virt. eigenvalues --    0.20134   0.25245   0.32502   0.34058   0.34693

 Mulliken charges:
               1
     1  C   -0.093689
     2  C   -0.000874
     3  N   -0.208654
     4  H    0.100494
     5  H    0.099987
     6  H    0.102736
 Sum of Mulliken charges =   0.00000

 Dipole moment (field-independent basis, Debye):
    X=              4.1265    Y=              0.0100    Z=             -0.0039  Tot=              4.1265
 Quadrupole moment (field-independent basis, Debye-Ang):
   XX=            -21.1520   YY=            -17.7609   ZZ=            -17.7439
   XY=             -0.0394   XZ=              0.0140   YZ=             -0.0211

 Normal termination of Gaussian 09 at Thu Aug 27 00:05:32 2020.
