 Gaussian 09, Revision D.01,
 Gaussian 09:  ES64L-G09RevD.01 24-Apr-2013

 --------------------
 #p B2PLYPD3/Def2QZVP
 --------------------

 ------------
 cyanomethane
 ------------
 Symbolic Z-matrix:
 Charge =  0 Multiplicity = 1

                         Standard orientation:
 ---------------------------------------------------------------------
 Center     Atomic      Atomic             Coordinates (Angstroms)
 Number     Number       Type             X           Y           Z
 ---------------------------------------------------------------------
      1          6           0       -1.179514    0.002912    0.004407
      2          6           0        0.272170   -0.017950   -0.007532
      3          7           0        1.433877    0.007763    0.001795
      4          1           0       -1.509284   -0.078028    0.994556
      5          1           0       -1.558904   -0.821164   -0.569866
      6          1           0       -1.524885    0.935078   -0.418507
 ---------------------------------------------------------------------

 SCF Done:  E(RB2PLYPD3) =  -132.534098700     A.U. after   11 cycles
 E2(B2PLYPD3) =    -0.1808064643D+00 E(B2PLYPD3) =    -0.13271490516423D+03

 The electronic state is 1-A.
 Alpha  occ. eigenvalues --  -14.84325 -10.66428 -10.66356  -1.03800  -0.89917
 Alpha  occ. eigenvalues --   -0.59844  -0.54881  -0.54420  -0.44755  -0.38894
 Alpha  occ. eigenvalues --   -0.38853
 Alpha virt. eigenvalues --    0.03860   0.07955   0.08208   0.10174   0.11307
 Alpha virt. eigenvalues --    0.11363   0.15452   0.16109   0.16274   0.20128
 Alpha virt. eigenvalues --    0.20156   0.25439   0.32833   0.34771   0.35089

 Mulliken charges:
               1
     1  C   -0.078942
     2  C   -0.001636
     3  N   -0.211071
     4  H    0.098307
     5  H    0.096005
     6  H    0.097336
 Sum of Mulliken charges =   0.00000

 Dipole moment (field-independent basis, Debye):
    X=             -4.1410    Y=             -0.0102    Z=              0.0076  Tot=              4.1410
 Quadrupole moment (field-independent basis, Debye-Ang):
   XX=            -21.0233   YY=            -17.6947   ZZ=            -17.7415
   XY=             -0.0184   XZ=             -0.0032   YZ=             -0.0027

 Normal termination of Gaussian 09 at Wed Aug 26 10:50:55 2020.
