 Gaussian 09, Revision D.01,
 Gaussian 09:  ES64L-G09RevD.01 24-Apr-2013

 --------------------
 #p B2PLYPD3/Def2QZVP
 --------------------

 ------------
 cyanomethane
 ------------
 Symbolic Z-matrix:
 Charge =  0 Multiplicity = 1

                         Standard orientation:
 ---------------------------------------------------------------------
 Center     Atomic      Atomic             Coordinates (Angstroms)
 Number     Number       Type             X           Y           Z
 ---------------------------------------------------------------------
      1          6           0        1.175112    0.003708   -0.005043
      2          6           0       -0.273019   -0.010629    0.014173
      3          7           0       -1.431672    0.006994   -0.005167
      4          1           0        1.502140   -0.707146   -0.731777
      5          1           0        1.552112   -0.283145    0.961405
      6          1           0        1.554889    0.982863   -0.248241
 ---------------------------------------------------------------------

 SCF Done:  E(RB2PLYPD3) =  -132.535056704     A.U. after   11 cycles
 E2(B2PLYPD3) =    -0.1806358250D+00 E(B2PLYPD3) =    -0.13271569252903D+03

 The electronic state is 1-A.
 Alpha  occ. eigenvalues --  -14.84255 -10.66581 -10.66285  -1.03940  -0.89776
 Alpha  occ. eigenvalues --   -0.59917  -0.54614  -0.54227  -0.44771  -0.38945
 Alpha  occ. eigenvalues --   -0.38904
 Alpha virt. eigenvalues --    0.03837   0.07885   0.08147   0.10163   0.11402
 Alpha virt. eigenvalues --    0.11422   0.15478   0.16017   0.16505   0.20126
 Alpha virt. eigenvalues --    0.20132   0.25517   0.32895   0.34766   0.34915

 Mulliken charges:
               1
     1  C   -0.079851
     2  C   -0.001307
     3  N   -0.209314
     4  H    0.098086
     5  H    0.095179
     6  H    0.097206
 Sum of Mulliken charges =   0.00000

 Dipole moment (field-independent basis, Debye):
    X=              4.1344    Y=             -0.0159    Z=              0.0077  Tot=              4.1345
 Quadrupole moment (field-independent basis, Debye-Ang):
   XX=            -21.0059   YY=            -17.7031   ZZ=            -17.7456
   XY=              0.0553   XZ=              0.0052   YZ=              0.0123

 Normal termination of Gaussian 09 at Wed Aug 26 23:56:47 2020.
