 Gaussian 09, Revision D.01,
 Gaussian 09:  ES64L-G09RevD.01 24-Apr-2013

 --------------------
 #p B2PLYPD3/Def2QZVP
 --------------------

 ------------
 cyanomethane
 ------------
 Symbolic Z-matrix:
 Charge =  0 Multiplicity = 1

                         Standard orientation:
 ---------------------------------------------------------------------
 Center     Atomic      Atomic             Coordinates (Angstroms)
 Number     Number       Type             X           Y           Z
 ---------------------------------------------------------------------
      1          6           0        1.170135   -0.005358    0.007481
      2          6           0       -0.282565   -0.001628    0.012358
      3          7           0       -1.430695    0.003417   -0.006764
      4          1           0        1.588136    1.017871   -0.181126
      5          1           0        1.539828   -0.639127   -0.805959
      6          1           0        1.561482   -0.360743    0.915401
 ---------------------------------------------------------------------

 SCF Done:  E(RB2PLYPD3) =  -132.534482989     A.U. after   11 cycles
 E2(B2PLYPD3) =    -0.1799549886D+00 E(B2PLYPD3) =    -0.13271443797782D+03

 The electronic state is 1-A.
 Alpha  occ. eigenvalues --  -14.84070 -10.67007 -10.66113  -1.04415  -0.89262
 Alpha  occ. eigenvalues --   -0.60162  -0.54423  -0.53013  -0.44833  -0.39329
 Alpha  occ. eigenvalues --   -0.39116
 Alpha virt. eigenvalues --    0.03741   0.07646   0.08247   0.10183   0.11439
 Alpha virt. eigenvalues --    0.11705   0.15496   0.16419   0.16663   0.20025
 Alpha virt. eigenvalues --    0.20095   0.25446   0.32799   0.34216   0.35106

 Mulliken charges:
               1
     1  C   -0.078345
     2  C   -0.001036
     3  N   -0.202559
     4  H    0.091313
     5  H    0.093532
     6  H    0.097095
 Sum of Mulliken charges =   0.00000

 Dipole moment (field-independent basis, Debye):
    X=              4.1209    Y=             -0.0156    Z=              0.0081  Tot=              4.1210
 Quadrupole moment (field-independent basis, Debye-Ang):
   XX=            -20.8803   YY=            -17.7764   ZZ=            -17.7477
   XY=              0.0311   XZ=             -0.0365   YZ=             -0.0210

 Normal termination of Gaussian 09 at Thu Aug 27 00:14:46 2020.
