 Gaussian 09, Revision D.01,
 Gaussian 09:  ES64L-G09RevD.01 24-Apr-2013

 --------------------
 #p B2PLYPD3/Def2QZVP
 --------------------

 ------------
 cyanomethane
 ------------
 Symbolic Z-matrix:
 Charge =  0 Multiplicity = 1

                         Standard orientation:
 ---------------------------------------------------------------------
 Center     Atomic      Atomic             Coordinates (Angstroms)
 Number     Number       Type             X           Y           Z
 ---------------------------------------------------------------------
      1          6           0        1.175116   -0.011532   -0.031039
      2          6           0       -0.263368    0.051537    0.007313
      3          7           0       -1.423496   -0.023818    0.003264
      4          1           0        1.543340   -0.388436    0.929224
      5          1           0        1.513379    0.945701   -0.097383
      6          1           0        1.437266   -0.630570   -0.712331
 ---------------------------------------------------------------------

 SCF Done:  E(RB2PLYPD3) =  -132.516380727     A.U. after   11 cycles
 E2(B2PLYPD3) =    -0.1805275797D+00 E(B2PLYPD3) =    -0.13269690830666D+03

 The electronic state is 1-A.
 Alpha  occ. eigenvalues --  -14.84258 -10.66215 -10.64922  -1.03832  -0.91355
 Alpha  occ. eigenvalues --   -0.60395  -0.58114  -0.53766  -0.44714  -0.39079
 Alpha  occ. eigenvalues --   -0.38600
 Alpha virt. eigenvalues --    0.03928   0.08079   0.08883   0.10114   0.11049
 Alpha virt. eigenvalues --    0.11574   0.15585   0.15851   0.16456   0.20054
 Alpha virt. eigenvalues --    0.20259   0.25786   0.32948   0.34333   0.36544

 Mulliken charges:
               1
     1  C   -0.073842
     2  C   -0.000061
     3  N   -0.213628
     4  H    0.084694
     5  H    0.096866
     6  H    0.105971
 Sum of Mulliken charges =   0.00000

 Dipole moment (field-independent basis, Debye):
    X=              4.1285    Y=              0.0300    Z=              0.0181  Tot=              4.1286
 Quadrupole moment (field-independent basis, Debye-Ang):
   XX=            -20.9819   YY=            -17.5328   ZZ=            -17.7305
   XY=             -0.0983   XZ=              0.1476   YZ=              0.1143

 Normal termination of Gaussian 09 at Wed Aug 26 20:42:25 2020.
