 Gaussian 09, Revision D.01,
 Gaussian 09:  ES64L-G09RevD.01 24-Apr-2013

 --------------------
 #p B2PLYPD3/Def2QZVP
 --------------------

 ------------
 cyanomethane
 ------------
 Symbolic Z-matrix:
 Charge =  0 Multiplicity = 1

                         Standard orientation:
 ---------------------------------------------------------------------
 Center     Atomic      Atomic             Coordinates (Angstroms)
 Number     Number       Type             X           Y           Z
 ---------------------------------------------------------------------
      1          6           0       -1.162438    0.034501    0.014818
      2          6           0        0.254208   -0.069169   -0.007716
      3          7           0        1.431118    0.027715    0.001866
      4          1           0       -1.518298   -0.058543    1.008750
      5          1           0       -1.573205   -0.901065   -0.580774
      6          1           0       -1.476940    0.973609   -0.483655
 ---------------------------------------------------------------------

 SCF Done:  E(RB2PLYPD3) =  -132.523643275     A.U. after   12 cycles
 E2(B2PLYPD3) =    -0.1833267845D+00 E(B2PLYPD3) =    -0.13270697005912D+03

 The electronic state is 1-A.
 Alpha  occ. eigenvalues --  -14.84820 -10.67665 -10.66769  -1.03178  -0.89536
 Alpha  occ. eigenvalues --   -0.59801  -0.55105  -0.52542  -0.44859  -0.38342
 Alpha  occ. eigenvalues --   -0.37897
 Alpha virt. eigenvalues --    0.03479   0.06497   0.07346   0.09920   0.11244
 Alpha virt. eigenvalues --    0.11555   0.15345   0.15499   0.16572   0.20155
 Alpha virt. eigenvalues --    0.20255   0.26242   0.31512   0.33936   0.34737

 Mulliken charges:
               1
     1  C   -0.099826
     2  C    0.008201
     3  N   -0.219193
     4  H    0.107217
     5  H    0.092692
     6  H    0.110910
 Sum of Mulliken charges =   0.00000

 Dipole moment (field-independent basis, Debye):
    X=             -4.1056    Y=             -0.0255    Z=              0.0205  Tot=              4.1057
 Quadrupole moment (field-independent basis, Debye-Ang):
   XX=            -21.3107   YY=            -17.7033   ZZ=            -17.8424
   XY=             -0.0598   XZ=             -0.0544   YZ=             -0.1004

 Normal termination of Gaussian 09 at Wed Aug 26 18:32:28 2020.
