 Gaussian 09, Revision D.01,
 Gaussian 09:  ES64L-G09RevD.01 24-Apr-2013

 --------------------
 #p B2PLYPD3/Def2QZVP
 --------------------

 ------------
 cyanomethane
 ------------
 Symbolic Z-matrix:
 Charge =  0 Multiplicity = 1

                         Standard orientation:
 ---------------------------------------------------------------------
 Center     Atomic      Atomic             Coordinates (Angstroms)
 Number     Number       Type             X           Y           Z
 ---------------------------------------------------------------------
      1          6           0       -1.196573    0.021160    0.006908
      2          6           0        0.261969   -0.061685    0.007325
      3          7           0        1.451471    0.018186   -0.012113
      4          1           0       -1.435267   -0.094505    1.033558
      5          1           0       -1.699895   -0.802528   -0.632658
      6          1           0       -1.417507    1.012874   -0.401504
 ---------------------------------------------------------------------

 SCF Done:  E(RB2PLYPD3) =  -132.522590656     A.U. after   12 cycles
 E2(B2PLYPD3) =    -0.1842050061D+00 E(B2PLYPD3) =    -0.13270679566243D+03

 The electronic state is 1-A.
 Alpha  occ. eigenvalues --  -14.85104 -10.67829 -10.67271  -1.02582  -0.89252
 Alpha  occ. eigenvalues --   -0.58708  -0.55428  -0.53007  -0.44731  -0.38096
 Alpha  occ. eigenvalues --   -0.37998
 Alpha virt. eigenvalues --    0.03510   0.06529   0.07832   0.10127   0.10920
 Alpha virt. eigenvalues --    0.11159   0.14976   0.15239   0.16261   0.20231
 Alpha virt. eigenvalues --    0.20260   0.25408   0.31567   0.34165   0.34474

 Mulliken charges:
               1
     1  C   -0.103800
     2  C    0.004408
     3  N   -0.224154
     4  H    0.111348
     5  H    0.099194
     6  H    0.113004
 Sum of Mulliken charges =   0.00000

 Dipole moment (field-independent basis, Debye):
    X=             -4.1564    Y=              0.0003    Z=              0.0288  Tot=              4.1565
 Quadrupole moment (field-independent basis, Debye-Ang):
   XX=            -21.3550   YY=            -17.8200   ZZ=            -17.8194
   XY=              0.0933   XZ=              0.1638   YZ=             -0.0650

 Normal termination of Gaussian 09 at Wed Aug 26 20:26:04 2020.
