 Gaussian 09, Revision D.01,
 Gaussian 09:  ES64L-G09RevD.01 24-Apr-2013

 --------------------
 #p B2PLYPD3/Def2QZVP
 --------------------

 ------------
 cyanomethane
 ------------
 Symbolic Z-matrix:
 Charge =  0 Multiplicity = 1

                         Standard orientation:
 ---------------------------------------------------------------------
 Center     Atomic      Atomic             Coordinates (Angstroms)
 Number     Number       Type             X           Y           Z
 ---------------------------------------------------------------------
      1          6           0       -1.177392    0.005717    0.007484
      2          6           0        0.275520   -0.008410    0.020633
      3          7           0        1.436718    0.006033   -0.011874
      4          1           0       -1.536813   -0.303404    0.964165
      5          1           0       -1.530767   -0.736999   -0.775758
      6          1           0       -1.578212    1.014330   -0.273989
 ---------------------------------------------------------------------

 SCF Done:  E(RB2PLYPD3) =  -132.532238440     A.U. after   12 cycles
 E2(B2PLYPD3) =    -0.1813594453D+00 E(B2PLYPD3) =    -0.13271359788529D+03

 The electronic state is 1-A.
 Alpha  occ. eigenvalues --  -14.84380 -10.67679 -10.66446  -1.03829  -0.88969
 Alpha  occ. eigenvalues --   -0.59479  -0.54391  -0.52850  -0.44802  -0.38923
 Alpha  occ. eigenvalues --   -0.38686
 Alpha virt. eigenvalues --    0.03596   0.07212   0.07946   0.10142   0.11273
 Alpha virt. eigenvalues --    0.11598   0.15356   0.15913   0.16522   0.20080
 Alpha virt. eigenvalues --    0.20166   0.25418   0.32486   0.33671   0.34761

 Mulliken charges:
               1
     1  C   -0.092861
     2  C    0.000781
     3  N   -0.209244
     4  H    0.103356
     5  H    0.097325
     6  H    0.100643
 Sum of Mulliken charges =   0.00000

 Dipole moment (field-independent basis, Debye):
    X=             -4.1247    Y=             -0.0176    Z=              0.0176  Tot=              4.1248
 Quadrupole moment (field-independent basis, Debye-Ang):
   XX=            -21.1198   YY=            -17.7692   ZZ=            -17.7795
   XY=             -0.0472   XZ=              0.0693   YZ=             -0.0465

 Normal termination of Gaussian 09 at Thu Aug 27 00:11:41 2020.
