 Gaussian 09, Revision D.01,
 Gaussian 09:  ES64L-G09RevD.01 24-Apr-2013

 --------------------
 #p B2PLYPD3/Def2QZVP
 --------------------

 ------------
 cyanomethane
 ------------
 Symbolic Z-matrix:
 Charge =  0 Multiplicity = 1

                         Standard orientation:
 ---------------------------------------------------------------------
 Center     Atomic      Atomic             Coordinates (Angstroms)
 Number     Number       Type             X           Y           Z
 ---------------------------------------------------------------------
      1          6           0        1.210087    0.018547    0.022513
      2          6           0       -0.272902   -0.010461   -0.059836
      3          7           0       -1.448320   -0.002723    0.020870
      4          1           0        1.448822    1.021513   -0.229609
      5          1           0        1.640946   -0.748560   -0.720974
      6          1           0        1.425366   -0.302409    1.028431
 ---------------------------------------------------------------------

 SCF Done:  E(RB2PLYPD3) =  -132.525517907     A.U. after   12 cycles
 E2(B2PLYPD3) =    -0.1828263555D+00 E(B2PLYPD3) =    -0.13270834426243D+03

 The electronic state is 1-A.
 Alpha  occ. eigenvalues --  -14.84679 -10.67843 -10.66849  -1.03015  -0.88972
 Alpha  occ. eigenvalues --   -0.57960  -0.55879  -0.53009  -0.44572  -0.38556
 Alpha  occ. eigenvalues --   -0.38334
 Alpha virt. eigenvalues --    0.03577   0.07201   0.08241   0.10154   0.10836
 Alpha virt. eigenvalues --    0.11181   0.14770   0.15556   0.15792   0.20169
 Alpha virt. eigenvalues --    0.20180   0.24951   0.31577   0.33922   0.34986

 Mulliken charges:
               1
     1  C   -0.107019
     2  C   -0.000376
     3  N   -0.218691
     4  H    0.114179
     5  H    0.098486
     6  H    0.113420
 Sum of Mulliken charges =   0.00000

 Dipole moment (field-independent basis, Debye):
    X=              4.1366    Y=              0.0009    Z=             -0.0082  Tot=              4.1366
 Quadrupole moment (field-independent basis, Debye-Ang):
   XX=            -21.4673   YY=            -17.6831   ZZ=            -17.8077
   XY=             -0.1430   XZ=             -0.0136   YZ=             -0.0960

 Normal termination of Gaussian 09 at Wed Aug 26 23:50:23 2020.
