 Gaussian 09, Revision D.01,
 Gaussian 09:  ES64L-G09RevD.01 24-Apr-2013

 --------------------
 #p B2PLYPD3/Def2QZVP
 --------------------

 ------------
 cyanomethane
 ------------
 Symbolic Z-matrix:
 Charge =  0 Multiplicity = 1

                         Standard orientation:
 ---------------------------------------------------------------------
 Center     Atomic      Atomic             Coordinates (Angstroms)
 Number     Number       Type             X           Y           Z
 ---------------------------------------------------------------------
      1          6           0       -1.158943   -0.007891    0.002652
      2          6           0        0.275871    0.010866    0.001581
      3          7           0        1.428258    0.002884    0.000583
      4          1           0       -1.560271   -0.313968    0.963586
      5          1           0       -1.479275   -0.739792   -0.746915
      6          1           0       -1.659829    1.015722   -0.246146
 ---------------------------------------------------------------------

 SCF Done:  E(RB2PLYPD3) =  -132.531115226     A.U. after   12 cycles
 E2(B2PLYPD3) =    -0.1807131971D+00 E(B2PLYPD3) =    -0.13271182842279D+03

 The electronic state is 1-A.
 Alpha  occ. eigenvalues --  -14.84183 -10.67629 -10.66189  -1.04306  -0.89083
 Alpha  occ. eigenvalues --   -0.60139  -0.53959  -0.52526  -0.44880  -0.39022
 Alpha  occ. eigenvalues --   -0.38911
 Alpha virt. eigenvalues --    0.03600   0.06979   0.07859   0.10143   0.11647
 Alpha virt. eigenvalues --    0.11761   0.15507   0.16138   0.16899   0.20071
 Alpha virt. eigenvalues --    0.20123   0.25754   0.32352   0.34162   0.34521

 Mulliken charges:
               1
     1  C   -0.086869
     2  C    0.001786
     3  N   -0.204297
     4  H    0.097737
     5  H    0.099431
     6  H    0.092212
 Sum of Mulliken charges =   0.00000

 Dipole moment (field-independent basis, Debye):
    X=             -4.1109    Y=             -0.0375    Z=              0.0097  Tot=              4.1111
 Quadrupole moment (field-independent basis, Debye-Ang):
   XX=            -20.9455   YY=            -17.7600   ZZ=            -17.8319
   XY=             -0.0755   XZ=             -0.0588   YZ=              0.0291

 Normal termination of Gaussian 09 at Wed Aug 26 15:05:54 2020.
