 Gaussian 09, Revision D.01,
 Gaussian 09:  ES64L-G09RevD.01 24-Apr-2013

 --------------------
 #p B2PLYPD3/Def2QZVP
 --------------------

 ------------
 cyanomethane
 ------------
 Symbolic Z-matrix:
 Charge =  0 Multiplicity = 1

                         Standard orientation:
 ---------------------------------------------------------------------
 Center     Atomic      Atomic             Coordinates (Angstroms)
 Number     Number       Type             X           Y           Z
 ---------------------------------------------------------------------
      1          6           0       -1.179105    0.003250   -0.011568
      2          6           0        0.284260   -0.000686   -0.019551
      3          7           0        1.432693    0.000711    0.013523
      4          1           0       -1.580725   -0.027744    1.021582
      5          1           0       -1.530822   -0.884176   -0.482701
      6          1           0       -1.548237    0.891557   -0.446827
 ---------------------------------------------------------------------

 SCF Done:  E(RB2PLYPD3) =  -132.534296088     A.U. after   11 cycles
 E2(B2PLYPD3) =    -0.1798555899D+00 E(B2PLYPD3) =    -0.13271415167823D+03

 The electronic state is 1-A.
 Alpha  occ. eigenvalues --  -14.84052 -10.66753 -10.66115  -1.04339  -0.89399
 Alpha  occ. eigenvalues --   -0.59854  -0.55322  -0.52880  -0.44777  -0.39411
 Alpha  occ. eigenvalues --   -0.39096
 Alpha virt. eigenvalues --    0.03787   0.07848   0.08513   0.10205   0.11243
 Alpha virt. eigenvalues --    0.11687   0.15415   0.16367   0.16568   0.19987
 Alpha virt. eigenvalues --    0.20131   0.25247   0.32823   0.34215   0.35530

 Mulliken charges:
               1
     1  C   -0.077281
     2  C   -0.002773
     3  N   -0.203289
     4  H    0.088173
     5  H    0.097099
     6  H    0.098071
 Sum of Mulliken charges =   0.00000

 Dipole moment (field-independent basis, Debye):
    X=             -4.1278    Y=             -0.0047    Z=             -0.0032  Tot=              4.1278
 Quadrupole moment (field-independent basis, Debye-Ang):
   XX=            -20.9132   YY=            -17.5992   ZZ=            -17.8767
   XY=             -0.0071   XZ=             -0.1586   YZ=             -0.0053

 Normal termination of Gaussian 09 at Thu Aug 27 00:08:52 2020.
