 Gaussian 09, Revision D.01,
 Gaussian 09:  ES64L-G09RevD.01 24-Apr-2013

 --------------------
 #p B2PLYPD3/Def2QZVP
 --------------------

 ------------
 cyanomethane
 ------------
 Symbolic Z-matrix:
 Charge =  0 Multiplicity = 1

                         Standard orientation:
 ---------------------------------------------------------------------
 Center     Atomic      Atomic             Coordinates (Angstroms)
 Number     Number       Type             X           Y           Z
 ---------------------------------------------------------------------
      1          6           0       -1.185948    0.053537   -0.003715
      2          6           0        0.296292   -0.029392   -0.058823
      3          7           0        1.438690    0.003920    0.030522
      4          1           0       -1.514531    0.959574   -0.340783
      5          1           0       -1.572546   -0.216358    1.111191
      6          1           0       -1.645820   -0.915526   -0.608835
 ---------------------------------------------------------------------

 SCF Done:  E(RB2PLYPD3) =  -132.511187885     A.U. after   12 cycles
 E2(B2PLYPD3) =    -0.1810747235D+00 E(B2PLYPD3) =    -0.13269226260847D+03

 The electronic state is 1-A.
 Alpha  occ. eigenvalues --  -14.84125 -10.69244 -10.66256  -1.04492  -0.87592
 Alpha  occ. eigenvalues --   -0.59090  -0.54720  -0.49709  -0.44829  -0.39663
 Alpha  occ. eigenvalues --   -0.38661
 Alpha virt. eigenvalues --    0.03068   0.06162   0.08224   0.10075   0.11123
 Alpha virt. eigenvalues --    0.11965   0.15079   0.15809   0.17133   0.19841
 Alpha virt. eigenvalues --    0.20087   0.25129   0.30675   0.31837   0.34871

 Mulliken charges:
               1
     1  C   -0.110481
     2  C    0.004873
     3  N   -0.198770
     4  H    0.119254
     5  H    0.096133
     6  H    0.088991
 Sum of Mulliken charges =   0.00000

 Dipole moment (field-independent basis, Debye):
    X=             -4.0638    Y=             -0.0121    Z=             -0.0198  Tot=              4.0638
 Quadrupole moment (field-independent basis, Debye-Ang):
   XX=            -21.2133   YY=            -17.6142   ZZ=            -18.0355
   XY=              0.1094   XZ=             -0.2319   YZ=             -0.1784

 Normal termination of Gaussian 09 at Wed Aug 26 23:47:22 2020.
