 Gaussian 09, Revision D.01,
 Gaussian 09:  ES64L-G09RevD.01 24-Apr-2013

 --------------------
 #p B2PLYPD3/Def2QZVP
 --------------------

 ------------
 cyanomethane
 ------------
 Symbolic Z-matrix:
 Charge =  0 Multiplicity = 1

                         Standard orientation:
 ---------------------------------------------------------------------
 Center     Atomic      Atomic             Coordinates (Angstroms)
 Number     Number       Type             X           Y           Z
 ---------------------------------------------------------------------
      1          6           0       -1.192568   -0.012178   -0.002882
      2          6           0        0.283697    0.019336   -0.001212
      3          7           0        1.435529   -0.001552    0.003055
      4          1           0       -1.516010   -0.458955    0.921380
      5          1           0       -1.452274   -0.603869   -0.837671
      6          1           0       -1.627194    1.030745   -0.080532
 ---------------------------------------------------------------------

 SCF Done:  E(RB2PLYPD3) =  -132.532950387     A.U. after   12 cycles
 E2(B2PLYPD3) =    -0.1802464674D+00 E(B2PLYPD3) =    -0.13271319685434D+03

 The electronic state is 1-A.
 Alpha  occ. eigenvalues --  -14.84037 -10.67310 -10.66150  -1.04118  -0.89076
 Alpha  occ. eigenvalues --   -0.58776  -0.55032  -0.53322  -0.44641  -0.39192
 Alpha  occ. eigenvalues --   -0.39092
 Alpha virt. eigenvalues --    0.03735   0.07765   0.08574   0.10242   0.11320
 Alpha virt. eigenvalues --    0.11446   0.15163   0.15850   0.16399   0.20068
 Alpha virt. eigenvalues --    0.20095   0.24973   0.32274   0.34392   0.34994

 Mulliken charges:
               1
     1  C   -0.095222
     2  C   -0.004580
     3  N   -0.205461
     4  H    0.102163
     5  H    0.106094
     6  H    0.097006
 Sum of Mulliken charges =   0.00000

 Dipole moment (field-independent basis, Debye):
    X=             -4.1220    Y=             -0.0175    Z=             -0.0007  Tot=              4.1220
 Quadrupole moment (field-independent basis, Debye-Ang):
   XX=            -21.1695   YY=            -17.7025   ZZ=            -17.7099
   XY=             -0.0786   XZ=             -0.0667   YZ=              0.0318

 Normal termination of Gaussian 09 at Wed Aug 26 10:44:15 2020.
