 Gaussian 09, Revision D.01,
 Gaussian 09:  ES64L-G09RevD.01 24-Apr-2013

 --------------------
 #p B2PLYPD3/Def2QZVP
 --------------------

 ------------
 cyanomethane
 ------------
 Symbolic Z-matrix:
 Charge =  0 Multiplicity = 1

                         Standard orientation:
 ---------------------------------------------------------------------
 Center     Atomic      Atomic             Coordinates (Angstroms)
 Number     Number       Type             X           Y           Z
 ---------------------------------------------------------------------
      1          6           0       -1.175471    0.005770    0.004486
      2          6           0        0.268376   -0.010309    0.029784
      3          7           0        1.431089    0.009370   -0.016679
      4          1           0       -1.504256   -0.204175    0.955369
      5          1           0       -1.486210   -0.822892   -0.679118
      6          1           0       -1.584586    0.988706   -0.365120
 ---------------------------------------------------------------------

 SCF Done:  E(RB2PLYPD3) =  -132.529765599     A.U. after   12 cycles
 E2(B2PLYPD3) =    -0.1813310865D+00 E(B2PLYPD3) =    -0.13271109668563D+03

 The electronic state is 1-A.
 Alpha  occ. eigenvalues --  -14.84343 -10.67068 -10.66369  -1.03738  -0.89658
 Alpha  occ. eigenvalues --   -0.59553  -0.54969  -0.53471  -0.44744  -0.38815
 Alpha  occ. eigenvalues --   -0.38601
 Alpha virt. eigenvalues --    0.03622   0.07244   0.08373   0.10127   0.11246
 Alpha virt. eigenvalues --    0.11552   0.15372   0.15599   0.16614   0.20124
 Alpha virt. eigenvalues --    0.20194   0.25593   0.32646   0.33866   0.34808

 Mulliken charges:
               1
     1  C   -0.092577
     2  C    0.000305
     3  N   -0.211914
     4  H    0.103706
     5  H    0.099328
     6  H    0.101152
 Sum of Mulliken charges =   0.00000

 Dipole moment (field-independent basis, Debye):
    X=             -4.1223    Y=             -0.0322    Z=              0.0385  Tot=              4.1226
 Quadrupole moment (field-independent basis, Debye-Ang):
   XX=            -21.1713   YY=            -17.6503   ZZ=            -17.7892
   XY=             -0.0830   XZ=              0.0606   YZ=             -0.0274

 Normal termination of Gaussian 09 at Wed Aug 26 14:19:21 2020.
