 Gaussian 09, Revision D.01,
 Gaussian 09:  ES64L-G09RevD.01 24-Apr-2013

 --------------------
 #p B2PLYPD3/Def2QZVP
 --------------------

 ------------
 cyanomethane
 ------------
 Symbolic Z-matrix:
 Charge =  0 Multiplicity = 1

                         Standard orientation:
 ---------------------------------------------------------------------
 Center     Atomic      Atomic             Coordinates (Angstroms)
 Number     Number       Type             X           Y           Z
 ---------------------------------------------------------------------
      1          6           0        1.186787    0.003474    0.002466
      2          6           0       -0.275206    0.005796   -0.025534
      3          7           0       -1.438089   -0.006334    0.006432
      4          1           0        1.517377    0.999363   -0.225100
      5          1           0        1.625077   -0.734560   -0.684904
      6          1           0        1.454682   -0.276089    1.003387
 ---------------------------------------------------------------------

 SCF Done:  E(RB2PLYPD3) =  -132.533626795     A.U. after   12 cycles
 E2(B2PLYPD3) =    -0.1811536165D+00 E(B2PLYPD3) =    -0.13271478041189D+03

 The electronic state is 1-A.
 Alpha  occ. eigenvalues --  -14.84361 -10.67026 -10.66463  -1.03712  -0.89434
 Alpha  occ. eigenvalues --   -0.59360  -0.54861  -0.53768  -0.44724  -0.38894
 Alpha  occ. eigenvalues --   -0.38767
 Alpha virt. eigenvalues --    0.03774   0.07688   0.08201   0.10199   0.11194
 Alpha virt. eigenvalues --    0.11432   0.15274   0.15751   0.16510   0.20106
 Alpha virt. eigenvalues --    0.20175   0.25247   0.32501   0.34529   0.34923

 Mulliken charges:
               1
     1  C   -0.088683
     2  C   -0.001243
     3  N   -0.211399
     4  H    0.102278
     5  H    0.097406
     6  H    0.101640
 Sum of Mulliken charges =   0.00000

 Dipole moment (field-independent basis, Debye):
    X=              4.1411    Y=              0.0035    Z=              0.0137  Tot=              4.1411
 Quadrupole moment (field-independent basis, Debye-Ang):
   XX=            -21.1102   YY=            -17.6718   ZZ=            -17.8112
   XY=             -0.0998   XZ=             -0.0324   YZ=             -0.0255

 Normal termination of Gaussian 09 at Wed Aug 26 10:53:03 2020.
