 Gaussian 09, Revision D.01,
 Gaussian 09:  ES64L-G09RevD.01 24-Apr-2013

 --------------------
 #p B2PLYPD3/Def2QZVP
 --------------------

 ------------
 cyanomethane
 ------------
 Symbolic Z-matrix:
 Charge =  0 Multiplicity = 1

                         Standard orientation:
 ---------------------------------------------------------------------
 Center     Atomic      Atomic             Coordinates (Angstroms)
 Number     Number       Type             X           Y           Z
 ---------------------------------------------------------------------
      1          6           0        1.178218   -0.003379   -0.000120
      2          6           0       -0.286257   -0.014342    0.003988
      3          7           0       -1.435549    0.009293   -0.004072
      4          1           0        1.589674    1.010027   -0.214047
      5          1           0        1.573914   -0.677885   -0.725022
      6          1           0        1.533487   -0.290866    0.944363
 ---------------------------------------------------------------------

 SCF Done:  E(RB2PLYPD3) =  -132.534334635     A.U. after   12 cycles
 E2(B2PLYPD3) =    -0.1799101939D+00 E(B2PLYPD3) =    -0.13271424482850D+03

 The electronic state is 1-A.
 Alpha  occ. eigenvalues --  -14.84128 -10.66752 -10.66206  -1.04344  -0.89350
 Alpha  occ. eigenvalues --   -0.60106  -0.54474  -0.53373  -0.44832  -0.39342
 Alpha  occ. eigenvalues --   -0.39231
 Alpha virt. eigenvalues --    0.03777   0.07821   0.08438   0.10209   0.11391
 Alpha virt. eigenvalues --    0.11537   0.15440   0.16286   0.16826   0.20041
 Alpha virt. eigenvalues --    0.20083   0.25239   0.32754   0.34542   0.35233

 Mulliken charges:
               1
     1  C   -0.074020
     2  C   -0.001448
     3  N   -0.203252
     4  H    0.090984
     5  H    0.093562
     6  H    0.094174
 Sum of Mulliken charges =   0.00000

 Dipole moment (field-independent basis, Debye):
    X=              4.1338    Y=             -0.0272    Z=              0.0198  Tot=              4.1340
 Quadrupole moment (field-independent basis, Debye-Ang):
   XX=            -20.8279   YY=            -17.7402   ZZ=            -17.7921
   XY=              0.0470   XZ=             -0.0251   YZ=              0.0114

 Normal termination of Gaussian 09 at Wed Aug 26 09:33:26 2020.
