 Gaussian 09, Revision D.01,
 Gaussian 09:  ES64L-G09RevD.01 24-Apr-2013

 --------------------
 #p B2PLYPD3/Def2QZVP
 --------------------

 ------------
 cyanomethane
 ------------
 Symbolic Z-matrix:
 Charge =  0 Multiplicity = 1

                         Standard orientation:
 ---------------------------------------------------------------------
 Center     Atomic      Atomic             Coordinates (Angstroms)
 Number     Number       Type             X           Y           Z
 ---------------------------------------------------------------------
      1          6           0        1.174259   -0.005784    0.010349
      2          6           0       -0.285643    0.059900   -0.011399
      3          7           0       -1.450565   -0.035209    0.009904
      4          1           0        1.683685   -0.159885    1.014116
      5          1           0        1.530038    0.971476   -0.424127
      6          1           0        1.608533   -0.889817   -0.653019
 ---------------------------------------------------------------------

 SCF Done:  E(RB2PLYPD3) =  -132.521831917     A.U. after   12 cycles
 E2(B2PLYPD3) =    -0.1829479818D+00 E(B2PLYPD3) =    -0.13270477989856D+03

 The electronic state is 1-A.
 Alpha  occ. eigenvalues --  -14.84898 -10.68962 -10.67015  -1.03716  -0.87803
 Alpha  occ. eigenvalues --   -0.59895  -0.52857  -0.51249  -0.45089  -0.38757
 Alpha  occ. eigenvalues --   -0.38608
 Alpha virt. eigenvalues --    0.03164   0.06156   0.07229   0.09910   0.11289
 Alpha virt. eigenvalues --    0.11690   0.15263   0.15893   0.17391   0.19946
 Alpha virt. eigenvalues --    0.20345   0.25539   0.32001   0.33064   0.33935

 Mulliken charges:
               1
     1  C   -0.094182
     2  C    0.009879
     3  N   -0.208344
     4  H    0.099290
     5  H    0.098383
     6  H    0.094973
 Sum of Mulliken charges =   0.00000

 Dipole moment (field-independent basis, Debye):
    X=              4.1175    Y=              0.0488    Z=             -0.0043  Tot=              4.1178
 Quadrupole moment (field-independent basis, Debye-Ang):
   XX=            -20.9021   YY=            -17.8778   ZZ=            -18.0557
   XY=             -0.2697   XZ=              0.1547   YZ=             -0.0494

 Normal termination of Gaussian 09 at Wed Aug 26 18:38:03 2020.
