 Gaussian 09, Revision D.01,
 Gaussian 09:  ES64L-G09RevD.01 24-Apr-2013

 --------------------
 #p B2PLYPD3/Def2QZVP
 --------------------

 ------------
 cyanomethane
 ------------
 Symbolic Z-matrix:
 Charge =  0 Multiplicity = 1

                         Standard orientation:
 ---------------------------------------------------------------------
 Center     Atomic      Atomic             Coordinates (Angstroms)
 Number     Number       Type             X           Y           Z
 ---------------------------------------------------------------------
      1          6           0        1.169890    0.001527    0.001716
      2          6           0       -0.281237    0.004001   -0.013573
      3          7           0       -1.431338   -0.004422    0.011919
      4          1           0        1.636569   -0.349077    0.947991
      5          1           0        1.521829    1.017464   -0.185045
      6          1           0        1.529047   -0.670602   -0.775240
 ---------------------------------------------------------------------

 SCF Done:  E(RB2PLYPD3) =  -132.534527408     A.U. after   12 cycles
 E2(B2PLYPD3) =    -0.1802720464D+00 E(B2PLYPD3) =    -0.13271479945470D+03

 The electronic state is 1-A.
 Alpha  occ. eigenvalues --  -14.84123 -10.67254 -10.66170  -1.04331  -0.89117
 Alpha  occ. eigenvalues --   -0.60014  -0.54208  -0.52944  -0.44835  -0.39175
 Alpha  occ. eigenvalues --   -0.39086
 Alpha virt. eigenvalues --    0.03714   0.07473   0.08124   0.10160   0.11492
 Alpha virt. eigenvalues --    0.11670   0.15465   0.16067   0.16949   0.20035
 Alpha virt. eigenvalues --    0.20132   0.25492   0.32790   0.34440   0.34634

 Mulliken charges:
               1
     1  C   -0.082725
     2  C   -0.000206
     3  N   -0.203572
     4  H    0.093000
     5  H    0.097411
     6  H    0.096092
 Sum of Mulliken charges =   0.00000

 Dipole moment (field-independent basis, Debye):
    X=              4.1202    Y=              0.0009    Z=             -0.0234  Tot=              4.1203
 Quadrupole moment (field-independent basis, Debye-Ang):
   XX=            -20.9190   YY=            -17.6992   ZZ=            -17.8502
   XY=             -0.0772   XZ=              0.1398   YZ=              0.0157

 Normal termination of Gaussian 09 at Wed Aug 26 23:57:20 2020.
