 Gaussian 09, Revision D.01,
 Gaussian 09:  ES64L-G09RevD.01 24-Apr-2013

 --------------------
 #p B2PLYPD3/Def2QZVP
 --------------------

 ------------
 cyanomethane
 ------------
 Symbolic Z-matrix:
 Charge =  0 Multiplicity = 1

                         Standard orientation:
 ---------------------------------------------------------------------
 Center     Atomic      Atomic             Coordinates (Angstroms)
 Number     Number       Type             X           Y           Z
 ---------------------------------------------------------------------
      1          6           0        1.152711    0.006916   -0.007439
      2          6           0       -0.278945   -0.010420   -0.026637
      3          7           0       -1.420548   -0.005273    0.029336
      4          1           0        1.790362   -0.202428    0.974341
      5          1           0        1.381399    1.036680   -0.308953
      6          1           0        1.529478   -0.776317   -0.666281
 ---------------------------------------------------------------------

 SCF Done:  E(RB2PLYPD3) =  -132.521851789     A.U. after   12 cycles
 E2(B2PLYPD3) =    -0.1803960937D+00 E(B2PLYPD3) =    -0.13270224788243D+03

 The electronic state is 1-A.
 Alpha  occ. eigenvalues --  -14.83915 -10.67839 -10.65935  -1.04727  -0.89070
 Alpha  occ. eigenvalues --   -0.60098  -0.55100  -0.50833  -0.44854  -0.39307
 Alpha  occ. eigenvalues --   -0.38766
 Alpha virt. eigenvalues --    0.03369   0.06347   0.08346   0.10179   0.11658
 Alpha virt. eigenvalues --    0.12140   0.15303   0.15823   0.17643   0.19955
 Alpha virt. eigenvalues --    0.20375   0.25900   0.32179   0.33540   0.34648

 Mulliken charges:
               1
     1  C   -0.096642
     2  C    0.004032
     3  N   -0.199812
     4  H    0.089300
     5  H    0.103664
     6  H    0.099459
 Sum of Mulliken charges =   0.00000

 Dipole moment (field-independent basis, Debye):
    X=              4.0935    Y=              0.0030    Z=             -0.0640  Tot=              4.0940
 Quadrupole moment (field-independent basis, Debye-Ang):
   XX=            -20.8730   YY=            -17.5490   ZZ=            -18.0962
   XY=             -0.2285   XZ=              0.3692   YZ=              0.0324

 Normal termination of Gaussian 09 at Wed Aug 26 19:14:07 2020.
