 Gaussian 09, Revision D.01,
 Gaussian 09:  ES64L-G09RevD.01 24-Apr-2013

 --------------------
 #p B2PLYPD3/Def2QZVP
 --------------------

 ------------
 cyanomethane
 ------------
 Symbolic Z-matrix:
 Charge =  0 Multiplicity = 1

                         Standard orientation:
 ---------------------------------------------------------------------
 Center     Atomic      Atomic             Coordinates (Angstroms)
 Number     Number       Type             X           Y           Z
 ---------------------------------------------------------------------
      1          6           0       -1.181220    0.021115    0.004270
      2          6           0        0.280410   -0.015948    0.012856
      3          7           0        1.426124    0.004921   -0.006831
      4          1           0       -1.508104    0.952359   -0.403607
      5          1           0       -1.532967   -0.173574    1.013425
      6          1           0       -1.536937   -0.844230   -0.664757
 ---------------------------------------------------------------------

 SCF Done:  E(RB2PLYPD3) =  -132.533037565     A.U. after   11 cycles
 E2(B2PLYPD3) =    -0.1799037340D+00 E(B2PLYPD3) =    -0.13271294129913D+03

 The electronic state is 1-A.
 Alpha  occ. eigenvalues --  -14.83834 -10.67535 -10.65889  -1.04374  -0.88984
 Alpha  occ. eigenvalues --   -0.58867  -0.55102  -0.52795  -0.44632  -0.39347
 Alpha  occ. eigenvalues --   -0.38992
 Alpha virt. eigenvalues --    0.03671   0.07766   0.08342   0.10177   0.11371
 Alpha virt. eigenvalues --    0.11764   0.15287   0.15831   0.16424   0.20016
 Alpha virt. eigenvalues --    0.20110   0.25264   0.32398   0.33626   0.35232

 Mulliken charges:
               1
     1  C   -0.099847
     2  C   -0.003780
     3  N   -0.202535
     4  H    0.107418
     5  H    0.103282
     6  H    0.095462
 Sum of Mulliken charges =   0.00000

 Dipole moment (field-independent basis, Debye):
    X=             -4.0936    Y=             -0.0103    Z=              0.0122  Tot=              4.0936
 Quadrupole moment (field-independent basis, Debye-Ang):
   XX=            -21.2502   YY=            -17.6589   ZZ=            -17.6903
   XY=              0.0088   XZ=              0.0295   YZ=             -0.0852

 Normal termination of Gaussian 09 at Wed Aug 26 11:36:26 2020.
