 Gaussian 09, Revision D.01,
 Gaussian 09:  ES64L-G09RevD.01 24-Apr-2013

 --------------------
 #p B2PLYPD3/Def2QZVP
 --------------------

 ------------
 cyanomethane
 ------------
 Symbolic Z-matrix:
 Charge =  0 Multiplicity = 1

                         Standard orientation:
 ---------------------------------------------------------------------
 Center     Atomic      Atomic             Coordinates (Angstroms)
 Number     Number       Type             X           Y           Z
 ---------------------------------------------------------------------
      1          6           0        1.169180    0.008644    0.002204
      2          6           0       -0.279480   -0.023234    0.001326
      3          7           0       -1.429437    0.010876   -0.002699
      4          1           0        1.553674    1.037892   -0.134289
      5          1           0        1.578219   -0.631214   -0.813045
      6          1           0        1.535967   -0.395274    0.945045
 ---------------------------------------------------------------------

 SCF Done:  E(RB2PLYPD3) =  -132.534998063     A.U. after   12 cycles
 E2(B2PLYPD3) =    -0.1803169271D+00 E(B2PLYPD3) =    -0.13271531499026D+03

 The electronic state is 1-A.
 Alpha  occ. eigenvalues --  -14.84093 -10.67431 -10.66120  -1.04313  -0.89022
 Alpha  occ. eigenvalues --   -0.59751  -0.53866  -0.53272  -0.44809  -0.39135
 Alpha  occ. eigenvalues --   -0.39053
 Alpha virt. eigenvalues --    0.03685   0.07579   0.07922   0.10154   0.11556
 Alpha virt. eigenvalues --    0.11633   0.15461   0.16127   0.16685   0.20063
 Alpha virt. eigenvalues --    0.20081   0.25547   0.32760   0.34283   0.34565

 Mulliken charges:
               1
     1  C   -0.087067
     2  C   -0.000765
     3  N   -0.203605
     4  H    0.099022
     5  H    0.094774
     6  H    0.097642
 Sum of Mulliken charges =   0.00000

 Dipole moment (field-independent basis, Debye):
    X=              4.1110    Y=             -0.0235    Z=              0.0105  Tot=              4.1111
 Quadrupole moment (field-independent basis, Debye-Ang):
   XX=            -21.0063   YY=            -17.7126   ZZ=            -17.7980
   XY=              0.0339   XZ=             -0.0316   YZ=             -0.0217

 Normal termination of Gaussian 09 at Wed Aug 26 23:09:44 2020.
