 Gaussian 09, Revision D.01,
 Gaussian 09:  ES64L-G09RevD.01 24-Apr-2013

 --------------------
 #p B2PLYPD3/Def2QZVP
 --------------------

 ------------
 cyanomethane
 ------------
 Symbolic Z-matrix:
 Charge =  0 Multiplicity = 1

                         Standard orientation:
 ---------------------------------------------------------------------
 Center     Atomic      Atomic             Coordinates (Angstroms)
 Number     Number       Type             X           Y           Z
 ---------------------------------------------------------------------
      1          6           0        1.171316   -0.003830   -0.003679
      2          6           0       -0.275549    0.019317    0.005828
      3          7           0       -1.430687   -0.011775   -0.005437
      4          1           0        1.522570    1.027488   -0.080301
      5          1           0        1.593844   -0.596973   -0.819522
      6          1           0        1.523790   -0.441012    0.924992
 ---------------------------------------------------------------------

 SCF Done:  E(RB2PLYPD3) =  -132.535000761     A.U. after   12 cycles
 E2(B2PLYPD3) =    -0.1805892256D+00 E(B2PLYPD3) =    -0.13271558998627D+03

 The electronic state is 1-A.
 Alpha  occ. eigenvalues --  -14.84202 -10.67042 -10.66232  -1.04096  -0.89393
 Alpha  occ. eigenvalues --   -0.59923  -0.54213  -0.53640  -0.44800  -0.38992
 Alpha  occ. eigenvalues --   -0.38955
 Alpha virt. eigenvalues --    0.03756   0.07628   0.08039   0.10136   0.11450
 Alpha virt. eigenvalues --    0.11570   0.15478   0.15965   0.16730   0.20076
 Alpha virt. eigenvalues --    0.20144   0.25559   0.32844   0.34515   0.34671

 Mulliken charges:
               1
     1  C   -0.083824
     2  C   -0.000478
     3  N   -0.206939
     4  H    0.097746
     5  H    0.096562
     6  H    0.096934
 Sum of Mulliken charges =   0.00000

 Dipole moment (field-independent basis, Debye):
    X=              4.1231    Y=              0.0100    Z=              0.0169  Tot=              4.1232
 Quadrupole moment (field-independent basis, Debye-Ang):
   XX=            -21.0051   YY=            -17.6909   ZZ=            -17.8022
   XY=             -0.1182   XZ=             -0.0561   YZ=             -0.0068

 Normal termination of Gaussian 09 at Wed Aug 26 13:25:51 2020.
