 Gaussian 09, Revision D.01,
 Gaussian 09:  ES64L-G09RevD.01 24-Apr-2013

 --------------------
 #p B2PLYPD3/Def2QZVP
 --------------------

 ------------
 cyanomethane
 ------------
 Symbolic Z-matrix:
 Charge =  0 Multiplicity = 1

                         Standard orientation:
 ---------------------------------------------------------------------
 Center     Atomic      Atomic             Coordinates (Angstroms)
 Number     Number       Type             X           Y           Z
 ---------------------------------------------------------------------
      1          6           0        1.176430    0.020008   -0.001867
      2          6           0       -0.280027    0.024080    0.000174
      3          7           0       -1.445186   -0.017348   -0.003326
      4          1           0        1.549037    0.995658   -0.028187
      5          1           0        1.636125   -0.604478   -0.865794
      6          1           0        1.552727   -0.534270    0.927424
 ---------------------------------------------------------------------

 SCF Done:  E(RB2PLYPD3) =  -132.527082757     A.U. after   12 cycles
 E2(B2PLYPD3) =    -0.1819692284D+00 E(B2PLYPD3) =    -0.13270905198533D+03

 The electronic state is 1-A.
 Alpha  occ. eigenvalues --  -14.84644 -10.67956 -10.66744  -1.03741  -0.88715
 Alpha  occ. eigenvalues --   -0.59976  -0.54704  -0.51515  -0.44945  -0.39003
 Alpha  occ. eigenvalues --   -0.38518
 Alpha virt. eigenvalues --    0.03453   0.06615   0.07917   0.10130   0.11077
 Alpha virt. eigenvalues --    0.11754   0.15343   0.16178   0.16761   0.20016
 Alpha virt. eigenvalues --    0.20229   0.25351   0.32181   0.33127   0.34940

 Mulliken charges:
               1
     1  C   -0.085778
     2  C    0.003453
     3  N   -0.209508
     4  H    0.105461
     5  H    0.092374
     6  H    0.093999
 Sum of Mulliken charges =   0.00000

 Dipole moment (field-independent basis, Debye):
    X=              4.1381    Y=              0.0144    Z=              0.0163  Tot=              4.1382
 Quadrupole moment (field-independent basis, Debye-Ang):
   XX=            -20.9499   YY=            -17.7316   ZZ=            -18.0063
   XY=             -0.1693   XZ=             -0.0500   YZ=             -0.0202

 Normal termination of Gaussian 09 at Wed Aug 26 14:11:54 2020.
