 Gaussian 09, Revision D.01,
 Gaussian 09:  ES64L-G09RevD.01 24-Apr-2013

 --------------------
 #p B2PLYPD3/Def2QZVP
 --------------------

 ------------
 cyanomethane
 ------------
 Symbolic Z-matrix:
 Charge =  0 Multiplicity = 1

                         Standard orientation:
 ---------------------------------------------------------------------
 Center     Atomic      Atomic             Coordinates (Angstroms)
 Number     Number       Type             X           Y           Z
 ---------------------------------------------------------------------
      1          6           0       -1.204330   -0.004287   -0.047858
      2          6           0        0.288944    0.053845    0.036891
      3          7           0        1.442178   -0.017548   -0.009525
      4          1           0       -1.568296   -0.333867    1.006182
      5          1           0       -1.383358   -0.774961   -0.665737
      6          1           0       -1.651280    0.934320   -0.207968
 ---------------------------------------------------------------------

 SCF Done:  E(RB2PLYPD3) =  -132.522056673     A.U. after   12 cycles
 E2(B2PLYPD3) =    -0.1807026438D+00 E(B2PLYPD3) =    -0.13270275931727D+03

 The electronic state is 1-A.
 Alpha  occ. eigenvalues --  -14.84207 -10.67098 -10.66386  -1.03950  -0.89249
 Alpha  occ. eigenvalues --   -0.58907  -0.57131  -0.51751  -0.44654  -0.39429
 Alpha  occ. eigenvalues --   -0.38771
 Alpha virt. eigenvalues --    0.03665   0.07729   0.08609   0.10273   0.10858
 Alpha virt. eigenvalues --    0.11652   0.14887   0.15633   0.16902   0.19940
 Alpha virt. eigenvalues --    0.20175   0.24891   0.31670   0.33210   0.36575

 Mulliken charges:
               1
     1  C   -0.091404
     2  C   -0.001009
     3  N   -0.208265
     4  H    0.083468
     5  H    0.112768
     6  H    0.104442
 Sum of Mulliken charges =   0.00000

 Dipole moment (field-independent basis, Debye):
    X=             -4.1389    Y=              0.0122    Z=              0.0308  Tot=              4.1390
 Quadrupole moment (field-independent basis, Debye-Ang):
   XX=            -21.0771   YY=            -17.5715   ZZ=            -17.9352
   XY=             -0.0675   XZ=             -0.1041   YZ=              0.1144

 Normal termination of Gaussian 09 at Wed Aug 26 16:29:50 2020.
