 Gaussian 09, Revision D.01,
 Gaussian 09:  ES64L-G09RevD.01 24-Apr-2013

 --------------------
 #p B2PLYPD3/Def2QZVP
 --------------------

 ------------
 cyanomethane
 ------------
 Symbolic Z-matrix:
 Charge =  0 Multiplicity = 1

                         Standard orientation:
 ---------------------------------------------------------------------
 Center     Atomic      Atomic             Coordinates (Angstroms)
 Number     Number       Type             X           Y           Z
 ---------------------------------------------------------------------
      1          6           0       -1.180183   -0.025767    0.003099
      2          6           0        0.287321    0.039300    0.008101
      3          7           0        1.434382   -0.016050   -0.004846
      4          1           0       -1.555546   -0.086591    0.979827
      5          1           0       -1.541412   -0.818656   -0.587751
      6          1           0       -1.586547    0.936397   -0.425350
 ---------------------------------------------------------------------

 SCF Done:  E(RB2PLYPD3) =  -132.532891057     A.U. after   12 cycles
 E2(B2PLYPD3) =    -0.1798612041D+00 E(B2PLYPD3) =    -0.13271275226099D+03

 The electronic state is 1-A.
 Alpha  occ. eigenvalues --  -14.84096 -10.66798 -10.66168  -1.04384  -0.89277
 Alpha  occ. eigenvalues --   -0.59991  -0.55032  -0.52869  -0.44818  -0.39474
 Alpha  occ. eigenvalues --   -0.39148
 Alpha virt. eigenvalues --    0.03786   0.07853   0.08396   0.10162   0.11319
 Alpha virt. eigenvalues --    0.11610   0.15422   0.16069   0.16980   0.20030
 Alpha virt. eigenvalues --    0.20060   0.25307   0.32524   0.34247   0.35619

 Mulliken charges:
               1
     1  C   -0.076555
     2  C   -0.000939
     3  N   -0.202806
     4  H    0.095418
     5  H    0.098454
     6  H    0.086428
 Sum of Mulliken charges =   0.00000

 Dipole moment (field-independent basis, Debye):
    X=             -4.1211    Y=              0.0216    Z=              0.0171  Tot=              4.1212
 Quadrupole moment (field-independent basis, Debye-Ang):
   XX=            -20.8746   YY=            -17.7535   ZZ=            -17.7561
   XY=              0.0548   XZ=              0.0086   YZ=              0.0641

 Normal termination of Gaussian 09 at Wed Aug 26 12:20:11 2020.
