 Gaussian 09, Revision D.01,
 Gaussian 09:  ES64L-G09RevD.01 24-Apr-2013

 --------------------
 #p B2PLYPD3/Def2QZVP
 --------------------

 ------------
 cyanomethane
 ------------
 Symbolic Z-matrix:
 Charge =  0 Multiplicity = 1

                         Standard orientation:
 ---------------------------------------------------------------------
 Center     Atomic      Atomic             Coordinates (Angstroms)
 Number     Number       Type             X           Y           Z
 ---------------------------------------------------------------------
      1          6           0        1.177453   -0.006333   -0.003956
      2          6           0       -0.278941   -0.005321   -0.022745
      3          7           0       -1.441843    0.003284    0.007352
      4          1           0        1.584857    0.994906   -0.241824
      5          1           0        1.619408   -0.723607   -0.637350
      6          1           0        1.497567   -0.224356    0.987913
 ---------------------------------------------------------------------

 SCF Done:  E(RB2PLYPD3) =  -132.533071904     A.U. after   12 cycles
 E2(B2PLYPD3) =    -0.1811145313D+00 E(B2PLYPD3) =    -0.13271418643507D+03

 The electronic state is 1-A.
 Alpha  occ. eigenvalues --  -14.84522 -10.66700 -10.66614  -1.03825  -0.89555
 Alpha  occ. eigenvalues --   -0.60529  -0.54404  -0.53515  -0.44907  -0.39023
 Alpha  occ. eigenvalues --   -0.38826
 Alpha virt. eigenvalues --    0.03787   0.07630   0.07983   0.10184   0.11242
 Alpha virt. eigenvalues --    0.11505   0.15446   0.16126   0.16924   0.20103
 Alpha virt. eigenvalues --    0.20162   0.25370   0.32624   0.34490   0.35266

 Mulliken charges:
               1
     1  C   -0.070483
     2  C    0.002445
     3  N   -0.210197
     4  H    0.091234
     5  H    0.094126
     6  H    0.092875
 Sum of Mulliken charges =   0.00000

 Dipole moment (field-independent basis, Debye):
    X=              4.1578    Y=             -0.0144    Z=              0.0213  Tot=              4.1579
 Quadrupole moment (field-independent basis, Debye-Ang):
   XX=            -20.8020   YY=            -17.7521   ZZ=            -17.8820
   XY=             -0.0064   XZ=              0.0293   YZ=              0.0296

 Normal termination of Gaussian 09 at Wed Aug 26 15:46:36 2020.
