 Gaussian 09, Revision D.01,
 Gaussian 09:  ES64L-G09RevD.01 24-Apr-2013

 --------------------
 #p B2PLYPD3/Def2QZVP
 --------------------

 ------------
 cyanomethane
 ------------
 Symbolic Z-matrix:
 Charge =  0 Multiplicity = 1

                         Standard orientation:
 ---------------------------------------------------------------------
 Center     Atomic      Atomic             Coordinates (Angstroms)
 Number     Number       Type             X           Y           Z
 ---------------------------------------------------------------------
      1          6           0       -1.174370    0.007876    0.000819
      2          6           0        0.281395    0.015137   -0.005180
      3          7           0        1.426117   -0.007118    0.002661
      4          1           0       -1.537680   -0.230716    1.004844
      5          1           0       -1.524736   -0.824027   -0.668125
      6          1           0       -1.562549    0.966494   -0.329185
 ---------------------------------------------------------------------

 SCF Done:  E(RB2PLYPD3) =  -132.535183573     A.U. after   11 cycles
 E2(B2PLYPD3) =    -0.1797855651D+00 E(B2PLYPD3) =    -0.13271496913813D+03

 The electronic state is 1-A.
 Alpha  occ. eigenvalues --  -14.83866 -10.67429 -10.65908  -1.04471  -0.88995
 Alpha  occ. eigenvalues --   -0.59337  -0.54395  -0.53114  -0.44707  -0.39337
 Alpha  occ. eigenvalues --   -0.39102
 Alpha virt. eigenvalues --    0.03703   0.07837   0.08131   0.10191   0.11462
 Alpha virt. eigenvalues --    0.11771   0.15392   0.16141   0.16476   0.20000
 Alpha virt. eigenvalues --    0.20104   0.25369   0.32749   0.33955   0.34897

 Mulliken charges:
               1
     1  C   -0.092796
     2  C   -0.003211
     3  N   -0.201282
     4  H    0.098278
     5  H    0.097037
     6  H    0.101975
 Sum of Mulliken charges =   0.00000

 Dipole moment (field-independent basis, Debye):
    X=             -4.1013    Y=             -0.0024    Z=              0.0086  Tot=              4.1014
 Quadrupole moment (field-independent basis, Debye-Ang):
   XX=            -21.1075   YY=            -17.6184   ZZ=            -17.7923
   XY=              0.0453   XZ=             -0.0456   YZ=             -0.0369

 Normal termination of Gaussian 09 at Wed Aug 26 09:53:06 2020.
