 Gaussian 09, Revision D.01,
 Gaussian 09:  ES64L-G09RevD.01 24-Apr-2013

 --------------------
 #p B2PLYPD3/Def2QZVP
 --------------------

 ------------
 cyanomethane
 ------------
 Symbolic Z-matrix:
 Charge =  0 Multiplicity = 1

                         Standard orientation:
 ---------------------------------------------------------------------
 Center     Atomic      Atomic             Coordinates (Angstroms)
 Number     Number       Type             X           Y           Z
 ---------------------------------------------------------------------
      1          6           0        1.179244    0.006353   -0.004615
      2          6           0       -0.280645    0.032400   -0.051313
      3          7           0       -1.414600   -0.011550    0.034737
      4          1           0        1.589575   -0.299028    0.895145
      5          1           0        1.555803    0.888851   -0.192958
      6          1           0        1.365228   -0.741497   -0.609772
 ---------------------------------------------------------------------

 SCF Done:  E(RB2PLYPD3) =  -132.510640116     A.U. after   12 cycles
 E2(B2PLYPD3) =    -0.1783652215D+00 E(B2PLYPD3) =    -0.13268900533788D+03

 The electronic state is 1-A.
 Alpha  occ. eigenvalues --  -14.83632 -10.65618 -10.64168  -1.04791  -0.91597
 Alpha  occ. eigenvalues --   -0.60818  -0.58212  -0.53603  -0.44656  -0.39829
 Alpha  occ. eigenvalues --   -0.39325
 Alpha virt. eigenvalues --    0.04000   0.08570   0.09816   0.10318   0.11132
 Alpha virt. eigenvalues --    0.11766   0.15541   0.15891   0.17197   0.19952
 Alpha virt. eigenvalues --    0.20173   0.25482   0.33493   0.35088   0.36875

 Mulliken charges:
               1
     1  C   -0.065102
     2  C   -0.002066
     3  N   -0.199845
     4  H    0.076349
     5  H    0.093243
     6  H    0.097421
 Sum of Mulliken charges =   0.00000

 Dipole moment (field-independent basis, Debye):
    X=              4.1046    Y=             -0.0213    Z=             -0.0307  Tot=              4.1047
 Quadrupole moment (field-independent basis, Debye-Ang):
   XX=            -20.7488   YY=            -17.3390   ZZ=            -17.8127
   XY=             -0.0435   XZ=              0.3848   YZ=              0.0571

 Normal termination of Gaussian 09 at Wed Aug 26 22:19:04 2020.
