 Gaussian 09, Revision D.01,
 Gaussian 09:  ES64L-G09RevD.01 24-Apr-2013

 --------------------
 #p B2PLYPD3/Def2QZVP
 --------------------

 ------------
 cyanomethane
 ------------
 Symbolic Z-matrix:
 Charge =  0 Multiplicity = 1

                         Standard orientation:
 ---------------------------------------------------------------------
 Center     Atomic      Atomic             Coordinates (Angstroms)
 Number     Number       Type             X           Y           Z
 ---------------------------------------------------------------------
      1          6           0       -1.185891   -0.006331   -0.001399
      2          6           0        0.279618    0.013313    0.007963
      3          7           0        1.436136   -0.006177   -0.003569
      4          1           0       -1.544623   -0.046883    1.011006
      5          1           0       -1.533319   -0.878750   -0.552176
      6          1           0       -1.537370    0.926975   -0.473227
 ---------------------------------------------------------------------

 SCF Done:  E(RB2PLYPD3) =  -132.535163564     A.U. after   11 cycles
 E2(B2PLYPD3) =    -0.1806279272D+00 E(B2PLYPD3) =    -0.13271579149172D+03

 The electronic state is 1-A.
 Alpha  occ. eigenvalues --  -14.84198 -10.67230 -10.66284  -1.03968  -0.89152
 Alpha  occ. eigenvalues --   -0.59256  -0.54244  -0.53918  -0.44717  -0.39036
 Alpha  occ. eigenvalues --   -0.38978
 Alpha virt. eigenvalues --    0.03746   0.07917   0.08086   0.10189   0.11363
 Alpha virt. eigenvalues --    0.11391   0.15288   0.16018   0.16336   0.20091
 Alpha virt. eigenvalues --    0.20113   0.25184   0.32598   0.34429   0.34746

 Mulliken charges:
               1
     1  C   -0.089914
     2  C   -0.002493
     3  N   -0.207593
     4  H    0.099423
     5  H    0.101474
     6  H    0.099103
 Sum of Mulliken charges =   0.00000

 Dipole moment (field-independent basis, Debye):
    X=             -4.1284    Y=              0.0075    Z=              0.0154  Tot=              4.1284
 Quadrupole moment (field-independent basis, Debye-Ang):
   XX=            -21.1184   YY=            -17.6815   ZZ=            -17.7762
   XY=              0.0325   XZ=             -0.0148   YZ=              0.0123

 Normal termination of Gaussian 09 at Thu Aug 27 00:04:38 2020.
