 Gaussian 09, Revision D.01,
 Gaussian 09:  ES64L-G09RevD.01 24-Apr-2013

 --------------------
 #p B2PLYPD3/Def2QZVP
 --------------------

 ------------
 cyanomethane
 ------------
 Symbolic Z-matrix:
 Charge =  0 Multiplicity = 1

                         Standard orientation:
 ---------------------------------------------------------------------
 Center     Atomic      Atomic             Coordinates (Angstroms)
 Number     Number       Type             X           Y           Z
 ---------------------------------------------------------------------
      1          6           0       -1.186173    0.016589    0.003838
      2          6           0        0.269099   -0.038597   -0.001489
      3          7           0        1.443741    0.021688   -0.003109
      4          1           0       -1.472209   -0.331947    0.917902
      5          1           0       -1.542282   -0.667460   -0.726211
      6          1           0       -1.589253    0.979643   -0.184023
 ---------------------------------------------------------------------

 SCF Done:  E(RB2PLYPD3) =  -132.527780235     A.U. after   12 cycles
 E2(B2PLYPD3) =    -0.1819545991D+00 E(B2PLYPD3) =    -0.13270973483373D+03

 The electronic state is 1-A.
 Alpha  occ. eigenvalues --  -14.84773 -10.66849 -10.65891  -1.03279  -0.90382
 Alpha  occ. eigenvalues --   -0.60240  -0.55504  -0.54548  -0.44839  -0.38679
 Alpha  occ. eigenvalues --   -0.38543
 Alpha virt. eigenvalues --    0.03847   0.07561   0.08399   0.10083   0.11133
 Alpha virt. eigenvalues --    0.11212   0.15433   0.15533   0.16934   0.20212
 Alpha virt. eigenvalues --    0.20233   0.25469   0.32735   0.34962   0.35423

 Mulliken charges:
               1
     1  C   -0.071004
     2  C    0.001986
     3  N   -0.217418
     4  H    0.097299
     5  H    0.091916
     6  H    0.097220
 Sum of Mulliken charges =   0.00000

 Dipole moment (field-independent basis, Debye):
    X=             -4.1699    Y=             -0.0501    Z=              0.0164  Tot=              4.1703
 Quadrupole moment (field-independent basis, Debye-Ang):
   XX=            -20.9118   YY=            -17.6996   ZZ=            -17.8325
   XY=             -0.1084   XZ=              0.0496   YZ=             -0.0320

 Normal termination of Gaussian 09 at Wed Aug 26 15:36:47 2020.
