 Gaussian 09, Revision D.01,
 Gaussian 09:  ES64L-G09RevD.01 24-Apr-2013

 --------------------
 #p B2PLYPD3/Def2QZVP
 --------------------

 ------------
 cyanomethane
 ------------
 Symbolic Z-matrix:
 Charge =  0 Multiplicity = 1

                         Standard orientation:
 ---------------------------------------------------------------------
 Center     Atomic      Atomic             Coordinates (Angstroms)
 Number     Number       Type             X           Y           Z
 ---------------------------------------------------------------------
      1          6           0        1.175502   -0.009823   -0.003280
      2          6           0       -0.277945    0.011109   -0.017070
      3          7           0       -1.440461   -0.004560    0.010401
      4          1           0        1.567973    1.034708   -0.019717
      5          1           0        1.552064   -0.537737   -0.835970
      6          1           0        1.577849   -0.472772    0.904988
 ---------------------------------------------------------------------

 SCF Done:  E(RB2PLYPD3) =  -132.533458867     A.U. after   11 cycles
 E2(B2PLYPD3) =    -0.1812390150D+00 E(B2PLYPD3) =    -0.13271469788219D+03

 The electronic state is 1-A.
 Alpha  occ. eigenvalues --  -14.84504 -10.67087 -10.66574  -1.03837  -0.89285
 Alpha  occ. eigenvalues --   -0.60245  -0.54415  -0.53082  -0.44898  -0.38977
 Alpha  occ. eigenvalues --   -0.38792
 Alpha virt. eigenvalues --    0.03723   0.07393   0.07926   0.10140   0.11280
 Alpha virt. eigenvalues --    0.11524   0.15450   0.16267   0.16629   0.20087
 Alpha virt. eigenvalues --    0.20159   0.25437   0.32611   0.34221   0.35044

 Mulliken charges:
               1
     1  C   -0.076770
     2  C    0.001545
     3  N   -0.209518
     4  H    0.092595
     5  H    0.098095
     6  H    0.094054
 Sum of Mulliken charges =   0.00000

 Dipole moment (field-independent basis, Debye):
    X=              4.1443    Y=             -0.0011    Z=             -0.0116  Tot=              4.1443
 Quadrupole moment (field-independent basis, Debye-Ang):
   XX=            -20.8923   YY=            -17.7995   ZZ=            -17.8263
   XY=             -0.0358   XZ=              0.0844   YZ=              0.0401

 Normal termination of Gaussian 09 at Wed Aug 26 13:09:44 2020.
