 Gaussian 09, Revision D.01,
 Gaussian 09:  ES64L-G09RevD.01 24-Apr-2013

 --------------------
 #p B2PLYPD3/Def2QZVP
 --------------------

 ------------
 cyanomethane
 ------------
 Symbolic Z-matrix:
 Charge =  0 Multiplicity = 1

                         Standard orientation:
 ---------------------------------------------------------------------
 Center     Atomic      Atomic             Coordinates (Angstroms)
 Number     Number       Type             X           Y           Z
 ---------------------------------------------------------------------
      1          6           0        1.183867   -0.003152    0.001240
      2          6           0       -0.277686    0.018690   -0.008975
      3          7           0       -1.437742   -0.010573    0.002453
      4          1           0        1.538706    0.967200   -0.362805
      5          1           0        1.571738   -0.818146   -0.643333
      6          1           0        1.516666   -0.168270    1.035380
 ---------------------------------------------------------------------

 SCF Done:  E(RB2PLYPD3) =  -132.534312853     A.U. after   12 cycles
 E2(B2PLYPD3) =    -0.1811271907D+00 E(B2PLYPD3) =    -0.13271544004338D+03

 The electronic state is 1-A.
 Alpha  occ. eigenvalues --  -14.84318 -10.67573 -10.66404  -1.03837  -0.88953
 Alpha  occ. eigenvalues --   -0.59212  -0.54036  -0.53608  -0.44749  -0.38890
 Alpha  occ. eigenvalues --   -0.38864
 Alpha virt. eigenvalues --    0.03672   0.07596   0.07920   0.10164   0.11331
 Alpha virt. eigenvalues --    0.11435   0.15290   0.15923   0.16388   0.20095
 Alpha virt. eigenvalues --    0.20138   0.25261   0.32509   0.34339   0.34430

 Mulliken charges:
               1
     1  C   -0.093481
     2  C   -0.000843
     3  N   -0.208986
     4  H    0.101143
     5  H    0.100475
     6  H    0.101691
 Sum of Mulliken charges =   0.00000

 Dipole moment (field-independent basis, Debye):
    X=              4.1273    Y=              0.0150    Z=              0.0025  Tot=              4.1273
 Quadrupole moment (field-independent basis, Debye-Ang):
   XX=            -21.1510   YY=            -17.7420   ZZ=            -17.7656
   XY=             -0.0762   XZ=             -0.0112   YZ=             -0.0092

 Normal termination of Gaussian 09 at Wed Aug 26 23:49:54 2020.
