 Gaussian 09, Revision D.01,
 Gaussian 09:  ES64L-G09RevD.01 24-Apr-2013

 --------------------
 #p B2PLYPD3/Def2QZVP
 --------------------

 ------------
 cyanomethane
 ------------
 Symbolic Z-matrix:
 Charge =  0 Multiplicity = 1

                         Standard orientation:
 ---------------------------------------------------------------------
 Center     Atomic      Atomic             Coordinates (Angstroms)
 Number     Number       Type             X           Y           Z
 ---------------------------------------------------------------------
      1          6           0       -1.180250    0.006146    0.003741
      2          6           0        0.271891   -0.022699   -0.002847
      3          7           0        1.436271    0.011882    0.001976
      4          1           0       -1.546236   -0.003859    1.027248
      5          1           0       -1.520844   -0.893569   -0.530825
      6          1           0       -1.536661    0.913570   -0.515620
 ---------------------------------------------------------------------

 SCF Done:  E(RB2PLYPD3) =  -132.533897445     A.U. after   11 cycles
 E2(B2PLYPD3) =    -0.1814624439D+00 E(B2PLYPD3) =    -0.13271535988925D+03

 The electronic state is 1-A.
 Alpha  occ. eigenvalues --  -14.84407 -10.67383 -10.66469  -1.03674  -0.89236
 Alpha  occ. eigenvalues --   -0.59375  -0.54134  -0.53888  -0.44756  -0.38758
 Alpha  occ. eigenvalues --   -0.38692
 Alpha virt. eigenvalues --    0.03695   0.07568   0.07821   0.10131   0.11337
 Alpha virt. eigenvalues --    0.11396   0.15351   0.15822   0.16369   0.20134
 Alpha virt. eigenvalues --    0.20160   0.25430   0.32593   0.34234   0.34563

 Mulliken charges:
               1
     1  C   -0.092473
     2  C   -0.000052
     3  N   -0.211609
     4  H    0.101918
     5  H    0.100549
     6  H    0.101666
 Sum of Mulliken charges =   0.00000

 Dipole moment (field-independent basis, Debye):
    X=             -4.1294    Y=             -0.0171    Z=             -0.0010  Tot=              4.1295
 Quadrupole moment (field-independent basis, Debye-Ang):
   XX=            -21.1735   YY=            -17.7381   ZZ=            -17.7557
   XY=             -0.0718   XZ=             -0.0300   YZ=             -0.0006

 Normal termination of Gaussian 09 at Thu Aug 27 00:09:20 2020.
