 Gaussian 09, Revision D.01,
 Gaussian 09:  ES64L-G09RevD.01 24-Apr-2013

 --------------------
 #p B2PLYPD3/Def2QZVP
 --------------------

 ------------
 cyanomethane
 ------------
 Symbolic Z-matrix:
 Charge =  0 Multiplicity = 1

                         Standard orientation:
 ---------------------------------------------------------------------
 Center     Atomic      Atomic             Coordinates (Angstroms)
 Number     Number       Type             X           Y           Z
 ---------------------------------------------------------------------
      1          6           0        1.179755    0.008845   -0.001578
      2          6           0       -0.284165    0.009864   -0.006409
      3          7           0       -1.436899   -0.007568    0.005490
      4          1           0        1.594002   -0.458101    0.916636
      5          1           0        1.540350    0.998223   -0.077037
      6          1           0        1.550397   -0.599401   -0.830105
 ---------------------------------------------------------------------

 SCF Done:  E(RB2PLYPD3) =  -132.534638106     A.U. after   11 cycles
 E2(B2PLYPD3) =    -0.1803107886D+00 E(B2PLYPD3) =    -0.13271494889440D+03

 The electronic state is 1-A.
 Alpha  occ. eigenvalues --  -14.84198 -10.67074 -10.66281  -1.04192  -0.89157
 Alpha  occ. eigenvalues --   -0.59846  -0.54696  -0.52968  -0.44817  -0.39266
 Alpha  occ. eigenvalues --   -0.39050
 Alpha virt. eigenvalues --    0.03745   0.07672   0.08275   0.10197   0.11287
 Alpha virt. eigenvalues --    0.11603   0.15386   0.16316   0.16602   0.20025
 Alpha virt. eigenvalues --    0.20124   0.25229   0.32673   0.34273   0.35159

 Mulliken charges:
               1
     1  C   -0.079558
     2  C   -0.001483
     3  N   -0.204845
     4  H    0.092162
     5  H    0.099199
     6  H    0.094526
 Sum of Mulliken charges =   0.00000

 Dipole moment (field-independent basis, Debye):
    X=              4.1333    Y=              0.0043    Z=             -0.0107  Tot=              4.1333
 Quadrupole moment (field-independent basis, Debye-Ang):
   XX=            -20.9169   YY=            -17.6967   ZZ=            -17.8471
   XY=             -0.0869   XZ=              0.0600   YZ=              0.0093

 Normal termination of Gaussian 09 at Wed Aug 26 09:52:12 2020.
