 Gaussian 09, Revision D.01,
 Gaussian 09:  ES64L-G09RevD.01 24-Apr-2013

 --------------------
 #p B2PLYPD3/Def2QZVP
 --------------------

 ------------
 cyanomethane
 ------------
 Symbolic Z-matrix:
 Charge =  0 Multiplicity = 1

                         Standard orientation:
 ---------------------------------------------------------------------
 Center     Atomic      Atomic             Coordinates (Angstroms)
 Number     Number       Type             X           Y           Z
 ---------------------------------------------------------------------
      1          6           0        1.183813    0.042453    0.011001
      2          6           0       -0.269107   -0.016960   -0.059739
      3          7           0       -1.453717   -0.000153    0.019544
      4          1           0        1.525484    1.071950   -0.070253
      5          1           0        1.711135   -0.729796   -0.755186
      6          1           0        1.451168   -0.494042    0.981058
 ---------------------------------------------------------------------

 SCF Done:  E(RB2PLYPD3) =  -132.516318582     A.U. after   13 cycles
 E2(B2PLYPD3) =    -0.1845053493D+00 E(B2PLYPD3) =    -0.13270082393135D+03

 The electronic state is 1-A.
 Alpha  occ. eigenvalues --  -14.85137 -10.68937 -10.67302  -1.02856  -0.88327
 Alpha  occ. eigenvalues --   -0.59153  -0.55264  -0.50543  -0.44907  -0.38469
 Alpha  occ. eigenvalues --   -0.37697
 Alpha virt. eigenvalues --    0.03271   0.05874   0.07128   0.10063   0.10788
 Alpha virt. eigenvalues --    0.11698   0.14918   0.15426   0.17009   0.20050
 Alpha virt. eigenvalues --    0.20317   0.25546   0.30757   0.32956   0.34917

 Mulliken charges:
               1
     1  C   -0.101377
     2  C    0.009387
     3  N   -0.219327
     4  H    0.117641
     5  H    0.090916
     6  H    0.102760
 Sum of Mulliken charges =   0.00000

 Dipole moment (field-independent basis, Debye):
    X=              4.1499    Y=             -0.0375    Z=              0.0335  Tot=              4.1502
 Quadrupole moment (field-independent basis, Debye-Ang):
   XX=            -21.2389   YY=            -17.5282   ZZ=            -18.3094
   XY=             -0.1960   XZ=              0.0465   YZ=             -0.0998

 Normal termination of Gaussian 09 at Wed Aug 26 19:40:47 2020.
