 Gaussian 09, Revision D.01,
 Gaussian 09:  ES64L-G09RevD.01 24-Apr-2013

 --------------------
 #p B2PLYPD3/Def2QZVP
 --------------------

 ------------
 cyanomethane
 ------------
 Symbolic Z-matrix:
 Charge =  0 Multiplicity = 1

                         Standard orientation:
 ---------------------------------------------------------------------
 Center     Atomic      Atomic             Coordinates (Angstroms)
 Number     Number       Type             X           Y           Z
 ---------------------------------------------------------------------
      1          6           0        1.175796   -0.008582    0.008018
      2          6           0       -0.279490    0.005657   -0.017392
      3          7           0       -1.427608   -0.004016    0.011531
      4          1           0        1.582864    0.006158    1.006093
      5          1           0        1.494594    0.936375   -0.506837
      6          1           0        1.537966   -0.896865   -0.523736
 ---------------------------------------------------------------------

 SCF Done:  E(RB2PLYPD3) =  -132.534303025     A.U. after   12 cycles
 E2(B2PLYPD3) =    -0.1800962003D+00 E(B2PLYPD3) =    -0.13271439922500D+03

 The electronic state is 1-A.
 Alpha  occ. eigenvalues --  -14.83962 -10.67386 -10.66015  -1.04330  -0.89072
 Alpha  occ. eigenvalues --   -0.59510  -0.54154  -0.53365  -0.44716  -0.39214
 Alpha  occ. eigenvalues --   -0.39031
 Alpha virt. eigenvalues --    0.03718   0.07835   0.08033   0.10155   0.11497
 Alpha virt. eigenvalues --    0.11657   0.15377   0.15827   0.16732   0.20051
 Alpha virt. eigenvalues --    0.20105   0.25403   0.32688   0.33973   0.34830

 Mulliken charges:
               1
     1  C   -0.093522
     2  C   -0.001653
     3  N   -0.203510
     4  H    0.099556
     5  H    0.097841
     6  H    0.101288
 Sum of Mulliken charges =   0.00000

 Dipole moment (field-independent basis, Debye):
    X=              4.1037    Y=              0.0107    Z=             -0.0045  Tot=              4.1038
 Quadrupole moment (field-independent basis, Debye-Ang):
   XX=            -21.1240   YY=            -17.6340   ZZ=            -17.7897
   XY=             -0.0447   XZ=              0.1516   YZ=              0.0275

 Normal termination of Gaussian 09 at Thu Aug 27 00:04:08 2020.
