 Gaussian 09, Revision D.01,
 Gaussian 09:  ES64L-G09RevD.01 24-Apr-2013

 --------------------
 #p B2PLYPD3/Def2QZVP
 --------------------

 ------------
 cyanomethane
 ------------
 Symbolic Z-matrix:
 Charge =  0 Multiplicity = 1

                         Standard orientation:
 ---------------------------------------------------------------------
 Center     Atomic      Atomic             Coordinates (Angstroms)
 Number     Number       Type             X           Y           Z
 ---------------------------------------------------------------------
      1          6           0       -1.187473   -0.004041    0.009910
      2          6           0        0.287494    0.025971   -0.005479
      3          7           0        1.430451   -0.004659    0.002213
      4          1           0       -1.512500   -0.306840    0.946786
      5          1           0       -1.454244   -0.773533   -0.719204
      6          1           0       -1.646541    0.981414   -0.269662
 ---------------------------------------------------------------------

 SCF Done:  E(RB2PLYPD3) =  -132.532877959     A.U. after   12 cycles
 E2(B2PLYPD3) =    -0.1794727010D+00 E(B2PLYPD3) =    -0.13271235065967D+03

 The electronic state is 1-A.
 Alpha  occ. eigenvalues --  -14.83816 -10.67118 -10.65926  -1.04490  -0.89128
 Alpha  occ. eigenvalues --   -0.59177  -0.54482  -0.53602  -0.44651  -0.39464
 Alpha  occ. eigenvalues --   -0.39279
 Alpha virt. eigenvalues --    0.03768   0.07968   0.08656   0.10256   0.11414
 Alpha virt. eigenvalues --    0.11608   0.15244   0.15859   0.16746   0.20008
 Alpha virt. eigenvalues --    0.20081   0.25030   0.32447   0.34297   0.35159

 Mulliken charges:
               1
     1  C   -0.091957
     2  C   -0.004861
     3  N   -0.200916
     4  H    0.101555
     5  H    0.099030
     6  H    0.097148
 Sum of Mulliken charges =   0.00000

 Dipole moment (field-independent basis, Debye):
    X=             -4.1130    Y=             -0.0240    Z=              0.0077  Tot=              4.1131
 Quadrupole moment (field-independent basis, Debye-Ang):
   XX=            -21.0732   YY=            -17.6248   ZZ=            -17.7635
   XY=             -0.0507   XZ=             -0.0461   YZ=             -0.0165

 Normal termination of Gaussian 09 at Wed Aug 26 11:38:13 2020.
