 Gaussian 09, Revision D.01,
 Gaussian 09:  ES64L-G09RevD.01 24-Apr-2013

 --------------------
 #p B2PLYPD3/Def2QZVP
 --------------------

 ------------
 cyanomethane
 ------------
 Symbolic Z-matrix:
 Charge =  0 Multiplicity = 1

                         Standard orientation:
 ---------------------------------------------------------------------
 Center     Atomic      Atomic             Coordinates (Angstroms)
 Number     Number       Type             X           Y           Z
 ---------------------------------------------------------------------
      1          6           0       -1.187111    0.011603    0.008027
      2          6           0        0.279495   -0.014970   -0.030264
      3          7           0        1.434368    0.009544    0.018741
      4          1           0       -1.580224   -0.049727    1.031748
      5          1           0       -1.474584   -0.944419   -0.540331
      6          1           0       -1.540073    0.947542   -0.489184
 ---------------------------------------------------------------------

 SCF Done:  E(RB2PLYPD3) =  -132.530618172     A.U. after   12 cycles
 E2(B2PLYPD3) =    -0.1810846528D+00 E(B2PLYPD3) =    -0.13271170282515D+03

 The electronic state is 1-A.
 Alpha  occ. eigenvalues --  -14.84156 -10.68141 -10.66260  -1.03973  -0.88540
 Alpha  occ. eigenvalues --   -0.58859  -0.53998  -0.52884  -0.44677  -0.39015
 Alpha  occ. eigenvalues --   -0.38787
 Alpha virt. eigenvalues --    0.03557   0.07471   0.07875   0.10110   0.11351
 Alpha virt. eigenvalues --    0.11562   0.15162   0.15502   0.16654   0.20063
 Alpha virt. eigenvalues --    0.20139   0.25220   0.32240   0.33554   0.34453

 Mulliken charges:
               1
     1  C   -0.106370
     2  C    0.000469
     3  N   -0.207083
     4  H    0.103644
     5  H    0.102376
     6  H    0.106963
 Sum of Mulliken charges =   0.00000

 Dipole moment (field-independent basis, Debye):
    X=             -4.1000    Y=             -0.0202    Z=             -0.0053  Tot=              4.1000
 Quadrupole moment (field-independent basis, Debye-Ang):
   XX=            -21.3225   YY=            -17.6024   ZZ=            -17.8563
   XY=             -0.0874   XZ=             -0.2217   YZ=             -0.0343

 Normal termination of Gaussian 09 at Wed Aug 26 15:51:09 2020.
