 Gaussian 09, Revision D.01,
 Gaussian 09:  ES64L-G09RevD.01 24-Apr-2013

 --------------------
 #p B2PLYPD3/Def2QZVP
 --------------------

 ------------
 cyanomethane
 ------------
 Symbolic Z-matrix:
 Charge =  0 Multiplicity = 1

                         Standard orientation:
 ---------------------------------------------------------------------
 Center     Atomic      Atomic             Coordinates (Angstroms)
 Number     Number       Type             X           Y           Z
 ---------------------------------------------------------------------
      1          6           0        1.162021   -0.004083   -0.009512
      2          6           0       -0.280094   -0.016404    0.004899
      3          7           0       -1.424953    0.006996    0.002732
      4          1           0        1.623045   -0.141872    1.003554
      5          1           0        1.513552    0.995948   -0.356816
      6          1           0        1.546509   -0.780128   -0.638180
 ---------------------------------------------------------------------

 SCF Done:  E(RB2PLYPD3) =  -132.534189233     A.U. after   11 cycles
 E2(B2PLYPD3) =    -0.1798733899D+00 E(B2PLYPD3) =    -0.13271406262338D+03

 The electronic state is 1-A.
 Alpha  occ. eigenvalues --  -14.83955 -10.67289 -10.65962  -1.04561  -0.89145
 Alpha  occ. eigenvalues --   -0.60102  -0.54341  -0.52662  -0.44823  -0.39323
 Alpha  occ. eigenvalues --   -0.39078
 Alpha virt. eigenvalues --    0.03698   0.07472   0.08083   0.10172   0.11555
 Alpha virt. eigenvalues --    0.11862   0.15506   0.16417   0.16678   0.20001
 Alpha virt. eigenvalues --    0.20102   0.25646   0.32847   0.34017   0.34914

 Mulliken charges:
               1
     1  C   -0.083528
     2  C   -0.000713
     3  N   -0.200884
     4  H    0.090525
     5  H    0.095736
     6  H    0.098864
 Sum of Mulliken charges =   0.00000

 Dipole moment (field-independent basis, Debye):
    X=              4.1062    Y=             -0.0084    Z=             -0.0014  Tot=              4.1063
 Quadrupole moment (field-independent basis, Debye-Ang):
   XX=            -20.9241   YY=            -17.6731   ZZ=            -17.8382
   XY=              0.0108   XZ=              0.0981   YZ=              0.0479

 Normal termination of Gaussian 09 at Wed Aug 26 11:19:17 2020.
