 Gaussian 09, Revision D.01,
 Gaussian 09:  ES64L-G09RevD.01 24-Apr-2013

 --------------------
 #p B2PLYPD3/Def2QZVP
 --------------------

 ------------
 cyanomethane
 ------------
 Symbolic Z-matrix:
 Charge =  0 Multiplicity = 1

                         Standard orientation:
 ---------------------------------------------------------------------
 Center     Atomic      Atomic             Coordinates (Angstroms)
 Number     Number       Type             X           Y           Z
 ---------------------------------------------------------------------
      1          6           0        1.165917    0.015194   -0.016429
      2          6           0       -0.299268    0.019307   -0.038672
      3          7           0       -1.436944   -0.016891    0.027916
      4          1           0        1.712497   -0.210786    0.917545
      5          1           0        1.527649    0.858234   -0.234126
      6          1           0        1.618568   -0.736224   -0.548228
 ---------------------------------------------------------------------

 SCF Done:  E(RB2PLYPD3) =  -132.506955395     A.U. after   11 cycles
 E2(B2PLYPD3) =    -0.1791195098D+00 E(B2PLYPD3) =    -0.13268607490447D+03

 The electronic state is 1-A.
 Alpha  occ. eigenvalues --  -14.84165 -10.66273 -10.64971  -1.04945  -0.90739
 Alpha  occ. eigenvalues --   -0.62477  -0.57013  -0.51093  -0.45103  -0.40113
 Alpha  occ. eigenvalues --   -0.39330
 Alpha virt. eigenvalues --    0.03662   0.07714   0.09305   0.10151   0.11034
 Alpha virt. eigenvalues --    0.12059   0.15660   0.17344   0.17623   0.19817
 Alpha virt. eigenvalues --    0.20377   0.25252   0.32927   0.34524   0.36599

 Mulliken charges:
               1
     1  C   -0.047884
     2  C    0.013420
     3  N   -0.198403
     4  H    0.062557
     5  H    0.092594
     6  H    0.077716
 Sum of Mulliken charges =   0.00000

 Dipole moment (field-independent basis, Debye):
    X=              4.1577    Y=              0.0072    Z=             -0.0309  Tot=              4.1578
 Quadrupole moment (field-independent basis, Debye-Ang):
   XX=            -20.0840   YY=            -17.6156   ZZ=            -18.1298
   XY=             -0.2268   XZ=              0.2945   YZ=             -0.0003

 Normal termination of Gaussian 09 at Wed Aug 26 16:36:32 2020.
