 Gaussian 09, Revision D.01,
 Gaussian 09:  ES64L-G09RevD.01 24-Apr-2013

 --------------------
 #p B2PLYPD3/Def2QZVP
 --------------------

 ------------
 cyanomethane
 ------------
 Symbolic Z-matrix:
 Charge =  0 Multiplicity = 1

                         Standard orientation:
 ---------------------------------------------------------------------
 Center     Atomic      Atomic             Coordinates (Angstroms)
 Number     Number       Type             X           Y           Z
 ---------------------------------------------------------------------
      1          6           0        1.174188   -0.002589   -0.009114
      2          6           0       -0.282366    0.007497    0.016492
      3          7           0       -1.435581   -0.001870   -0.003891
      4          1           0        1.589661    1.028028   -0.020919
      5          1           0        1.508916   -0.534951   -0.883654
      6          1           0        1.599557   -0.509432    0.887540
 ---------------------------------------------------------------------

 SCF Done:  E(RB2PLYPD3) =  -132.534662927     A.U. after   11 cycles
 E2(B2PLYPD3) =    -0.1805464410D+00 E(B2PLYPD3) =    -0.13271520936797D+03

 The electronic state is 1-A.
 Alpha  occ. eigenvalues --  -14.84224 -10.67446 -10.66294  -1.04200  -0.88933
 Alpha  occ. eigenvalues --   -0.59840  -0.54031  -0.52980  -0.44844  -0.39141
 Alpha  occ. eigenvalues --   -0.39038
 Alpha virt. eigenvalues --    0.03699   0.07542   0.07898   0.10183   0.11475
 Alpha virt. eigenvalues --    0.11572   0.15396   0.16397   0.16533   0.20058
 Alpha virt. eigenvalues --    0.20090   0.25386   0.32573   0.34259   0.34791

 Mulliken charges:
               1
     1  C   -0.083724
     2  C   -0.000184
     3  N   -0.204733
     4  H    0.095220
     5  H    0.099924
     6  H    0.093497
 Sum of Mulliken charges =   0.00000

 Dipole moment (field-independent basis, Debye):
    X=              4.1253    Y=             -0.0046    Z=              0.0002  Tot=              4.1253
 Quadrupole moment (field-independent basis, Debye-Ang):
   XX=            -20.9432   YY=            -17.7787   ZZ=            -17.8010
   XY=              0.0047   XZ=              0.0354   YZ=              0.0371

 Normal termination of Gaussian 09 at Wed Aug 26 23:08:38 2020.
