 Gaussian 09, Revision D.01,
 Gaussian 09:  ES64L-G09RevD.01 24-Apr-2013

 --------------------
 #p B2PLYPD3/Def2QZVP
 --------------------

 ------------
 cyanomethane
 ------------
 Symbolic Z-matrix:
 Charge =  0 Multiplicity = 1

                         Standard orientation:
 ---------------------------------------------------------------------
 Center     Atomic      Atomic             Coordinates (Angstroms)
 Number     Number       Type             X           Y           Z
 ---------------------------------------------------------------------
      1          6           0       -1.180602    0.006479    0.005920
      2          6           0        0.288404   -0.013753   -0.012901
      3          7           0        1.435871    0.004193    0.004805
      4          1           0       -1.535500    1.035160   -0.081967
      5          1           0       -1.562233   -0.435447    0.908380
      6          1           0       -1.600179   -0.585416   -0.818160
 ---------------------------------------------------------------------

 SCF Done:  E(RB2PLYPD3) =  -132.535710969     A.U. after   11 cycles
 E2(B2PLYPD3) =    -0.1798880855D+00 E(B2PLYPD3) =    -0.13271559905418D+03

 The electronic state is 1-A.
 Alpha  occ. eigenvalues --  -14.84067 -10.67169 -10.66162  -1.04396  -0.88966
 Alpha  occ. eigenvalues --   -0.59778  -0.54095  -0.53281  -0.44802  -0.39360
 Alpha  occ. eigenvalues --   -0.39265
 Alpha virt. eigenvalues --    0.03757   0.07976   0.08120   0.10219   0.11437
 Alpha virt. eigenvalues --    0.11549   0.15343   0.16424   0.16611   0.20022
 Alpha virt. eigenvalues --    0.20063   0.25167   0.32669   0.34591   0.34878

 Mulliken charges:
               1
     1  C   -0.080149
     2  C   -0.002078
     3  N   -0.202049
     4  H    0.097385
     5  H    0.095192
     6  H    0.091699
 Sum of Mulliken charges =   0.00000

 Dipole moment (field-independent basis, Debye):
    X=             -4.1277    Y=             -0.0175    Z=             -0.0016  Tot=              4.1278
 Quadrupole moment (field-independent basis, Debye-Ang):
   XX=            -20.8978   YY=            -17.6878   ZZ=            -17.8472
   XY=              0.0472   XZ=             -0.0161   YZ=             -0.0240

 Normal termination of Gaussian 09 at Thu Aug 27 00:00:18 2020.
