 Gaussian 09, Revision D.01,
 Gaussian 09:  ES64L-G09RevD.01 24-Apr-2013

 --------------------
 #p B2PLYPD3/Def2QZVP
 --------------------

 ------------
 cyanomethane
 ------------
 Symbolic Z-matrix:
 Charge =  0 Multiplicity = 1

                         Standard orientation:
 ---------------------------------------------------------------------
 Center     Atomic      Atomic             Coordinates (Angstroms)
 Number     Number       Type             X           Y           Z
 ---------------------------------------------------------------------
      1          6           0        1.180482    0.010955    0.002463
      2          6           0       -0.281772   -0.024175   -0.002374
      3          7           0       -1.434612    0.012485    0.000202
      4          1           0        1.564155    1.026748   -0.193497
      5          1           0        1.549990   -0.687668   -0.777214
      6          1           0        1.535877   -0.347161    0.968765
 ---------------------------------------------------------------------

 SCF Done:  E(RB2PLYPD3) =  -132.534858871     A.U. after   12 cycles
 E2(B2PLYPD3) =    -0.1805347182D+00 E(B2PLYPD3) =    -0.13271539358889D+03

 The electronic state is 1-A.
 Alpha  occ. eigenvalues --  -14.84155 -10.67540 -10.66230  -1.04139  -0.88873
 Alpha  occ. eigenvalues --   -0.59340  -0.53919  -0.53446  -0.44762  -0.39124
 Alpha  occ. eigenvalues --   -0.39013
 Alpha virt. eigenvalues --    0.03677   0.07697   0.07994   0.10166   0.11436
 Alpha virt. eigenvalues --    0.11511   0.15335   0.15908   0.16666   0.20071
 Alpha virt. eigenvalues --    0.20092   0.25297   0.32597   0.34202   0.34651

 Mulliken charges:
               1
     1  C   -0.091100
     2  C   -0.001386
     3  N   -0.205232
     4  H    0.101352
     5  H    0.097063
     6  H    0.099303
 Sum of Mulliken charges =   0.00000

 Dipole moment (field-independent basis, Debye):
    X=              4.1182    Y=             -0.0281    Z=              0.0056  Tot=              4.1183
 Quadrupole moment (field-independent basis, Debye-Ang):
   XX=            -21.0828   YY=            -17.6989   ZZ=            -17.8013
   XY=              0.0584   XZ=              0.0007   YZ=             -0.0198

 Normal termination of Gaussian 09 at Wed Aug 26 19:01:34 2020.
