 Gaussian 09, Revision D.01,
 Gaussian 09:  ES64L-G09RevD.01 24-Apr-2013

 --------------------
 #p B2PLYPD3/Def2QZVP
 --------------------

 ------------
 cyanomethane
 ------------
 Symbolic Z-matrix:
 Charge =  0 Multiplicity = 1

                         Standard orientation:
 ---------------------------------------------------------------------
 Center     Atomic      Atomic             Coordinates (Angstroms)
 Number     Number       Type             X           Y           Z
 ---------------------------------------------------------------------
      1          6           0        1.169600   -0.011613   -0.015331
      2          6           0       -0.292972    0.012610    0.073360
      3          7           0       -1.434737   -0.003404   -0.034086
      4          1           0        1.615630    1.036062   -0.140374
      5          1           0        1.539693   -0.603152   -0.801701
      6          1           0        1.628070   -0.415063    0.832506
 ---------------------------------------------------------------------

 SCF Done:  E(RB2PLYPD3) =  -132.529582238     A.U. after   11 cycles
 E2(B2PLYPD3) =    -0.1799715537D+00 E(B2PLYPD3) =    -0.13270955379171D+03

 The electronic state is 1-A.
 Alpha  occ. eigenvalues --  -14.84246 -10.66787 -10.66298  -1.04595  -0.89141
 Alpha  occ. eigenvalues --   -0.60914  -0.53800  -0.52762  -0.45009  -0.39472
 Alpha  occ. eigenvalues --   -0.39375
 Alpha virt. eigenvalues --    0.03615   0.07488   0.08268   0.10151   0.11455
 Alpha virt. eigenvalues --    0.11645   0.15496   0.16455   0.17294   0.19947
 Alpha virt. eigenvalues --    0.20070   0.25635   0.32637   0.34295   0.35364

 Mulliken charges:
               1
     1  C   -0.065286
     2  C    0.005594
     3  N   -0.200653
     4  H    0.084887
     5  H    0.090754
     6  H    0.084703
 Sum of Mulliken charges =   0.00000

 Dipole moment (field-independent basis, Debye):
    X=              4.1100    Y=             -0.0386    Z=              0.0593  Tot=              4.1106
 Quadrupole moment (field-independent basis, Debye-Ang):
   XX=            -20.6049   YY=            -17.7249   ZZ=            -17.9509
   XY=             -0.0828   XZ=             -0.1284   YZ=              0.0177

 Normal termination of Gaussian 09 at Wed Aug 26 23:36:21 2020.
