 Gaussian 09, Revision D.01,
 Gaussian 09:  ES64L-G09RevD.01 24-Apr-2013

 --------------------
 #p B2PLYPD3/Def2QZVP
 --------------------

 ------------
 cyanomethane
 ------------
 Symbolic Z-matrix:
 Charge =  0 Multiplicity = 1

                         Standard orientation:
 ---------------------------------------------------------------------
 Center     Atomic      Atomic             Coordinates (Angstroms)
 Number     Number       Type             X           Y           Z
 ---------------------------------------------------------------------
      1          6           0       -1.181009    0.009361    0.017309
      2          6           0        0.269955   -0.038228   -0.001988
      3          7           0        1.434496    0.014692   -0.002450
      4          1           0       -1.502066    0.007364    0.991913
      5          1           0       -1.585845   -0.866729   -0.547326
      6          1           0       -1.487236    0.929724   -0.519362
 ---------------------------------------------------------------------

 SCF Done:  E(RB2PLYPD3) =  -132.530699129     A.U. after   12 cycles
 E2(B2PLYPD3) =    -0.1813927026D+00 E(B2PLYPD3) =    -0.13271209183181D+03

 The electronic state is 1-A.
 Alpha  occ. eigenvalues --  -14.84407 -10.66975 -10.66456  -1.03645  -0.89622
 Alpha  occ. eigenvalues --   -0.59536  -0.55400  -0.53331  -0.44739  -0.38857
 Alpha  occ. eigenvalues --   -0.38573
 Alpha virt. eigenvalues --    0.03717   0.07466   0.08206   0.10140   0.11168
 Alpha virt. eigenvalues --    0.11483   0.15351   0.15959   0.16166   0.20120
 Alpha virt. eigenvalues --    0.20173   0.25486   0.32491   0.33902   0.35193

 Mulliken charges:
               1
     1  C   -0.089999
     2  C   -0.000129
     3  N   -0.212751
     4  H    0.105890
     5  H    0.096111
     6  H    0.100878
 Sum of Mulliken charges =   0.00000

 Dipole moment (field-independent basis, Debye):
    X=             -4.1279    Y=             -0.0107    Z=              0.0041  Tot=              4.1279
 Quadrupole moment (field-independent basis, Debye-Ang):
   XX=            -21.1664   YY=            -17.7619   ZZ=            -17.6906
   XY=             -0.0194   XZ=              0.0428   YZ=             -0.0144

 Normal termination of Gaussian 09 at Wed Aug 26 11:10:46 2020.
