 Gaussian 09, Revision D.01,
 Gaussian 09:  ES64L-G09RevD.01 24-Apr-2013

 --------------------
 #p B2PLYPD3/Def2QZVP
 --------------------

 ------------
 cyanomethane
 ------------
 Symbolic Z-matrix:
 Charge =  0 Multiplicity = 1

                         Standard orientation:
 ---------------------------------------------------------------------
 Center     Atomic      Atomic             Coordinates (Angstroms)
 Number     Number       Type             X           Y           Z
 ---------------------------------------------------------------------
      1          6           0        1.204389    0.000668   -0.023225
      2          6           0       -0.300912   -0.072137    0.007613
      3          7           0       -1.429796    0.033175    0.004877
      4          1           0        1.618213    0.030341    1.085982
      5          1           0        1.433030    1.039920   -0.484675
      6          1           0        1.536468   -0.873674   -0.541769
 ---------------------------------------------------------------------

 SCF Done:  E(RB2PLYPD3) =  -132.522780764     A.U. after   12 cycles
 E2(B2PLYPD3) =    -0.1796061053D+00 E(B2PLYPD3) =    -0.13270238686907D+03

 The electronic state is 1-A.
 Alpha  occ. eigenvalues --  -14.83503 -10.69047 -10.65645  -1.04772  -0.87424
 Alpha  occ. eigenvalues --   -0.57315  -0.54760  -0.51324  -0.44477  -0.39754
 Alpha  occ. eigenvalues --   -0.39275
 Alpha virt. eigenvalues --    0.03225   0.07298   0.08792   0.10264   0.11146
 Alpha virt. eigenvalues --    0.11920   0.14714   0.15890   0.16206   0.19823
 Alpha virt. eigenvalues --    0.20061   0.24709   0.31700   0.32731   0.34558

 Mulliken charges:
               1
     1  C   -0.120654
     2  C   -0.007202
     3  N   -0.193627
     4  H    0.096783
     5  H    0.110983
     6  H    0.113717
 Sum of Mulliken charges =   0.00000

 Dipole moment (field-independent basis, Debye):
    X=              4.0621    Y=             -0.0401    Z=              0.0000  Tot=              4.0623
 Quadrupole moment (field-independent basis, Debye-Ang):
   XX=            -21.4589   YY=            -17.4823   ZZ=            -17.8606
   XY=              0.1216   XZ=              0.1692   YZ=              0.0767

 Normal termination of Gaussian 09 at Wed Aug 26 19:06:50 2020.
