 Gaussian 09, Revision D.01,
 Gaussian 09:  ES64L-G09RevD.01 24-Apr-2013

 --------------------
 #p B2PLYPD3/Def2QZVP
 --------------------

 ------------
 cyanomethane
 ------------
 Symbolic Z-matrix:
 Charge =  0 Multiplicity = 1

                         Standard orientation:
 ---------------------------------------------------------------------
 Center     Atomic      Atomic             Coordinates (Angstroms)
 Number     Number       Type             X           Y           Z
 ---------------------------------------------------------------------
      1          6           0        1.170255   -0.003939   -0.007352
      2          6           0       -0.255811   -0.049869    0.037706
      3          7           0       -1.421739    0.033798   -0.016222
      4          1           0        1.397507   -0.676868   -0.790395
      5          1           0        1.487570   -0.294314    0.949383
      6          1           0        1.580433    1.057442   -0.227559
 ---------------------------------------------------------------------

 SCF Done:  E(RB2PLYPD3) =  -132.524279386     A.U. after   13 cycles
 E2(B2PLYPD3) =    -0.1820182070D+00 E(B2PLYPD3) =    -0.13270629759349D+03

 The electronic state is 1-A.
 Alpha  occ. eigenvalues --  -14.84395 -10.66838 -10.66341  -1.03523  -0.90225
 Alpha  occ. eigenvalues --   -0.59059  -0.56381  -0.53204  -0.44680  -0.38528
 Alpha  occ. eigenvalues --   -0.38263
 Alpha virt. eigenvalues --    0.03425   0.07053   0.08573   0.10036   0.11168
 Alpha virt. eigenvalues --    0.11538   0.15064   0.15547   0.16483   0.20185
 Alpha virt. eigenvalues --    0.20236   0.25962   0.32772   0.33642   0.35091

 Mulliken charges:
               1
     1  C   -0.099803
     2  C    0.001462
     3  N   -0.216635
     4  H    0.110317
     5  H    0.105753
     6  H    0.098906
 Sum of Mulliken charges =   0.00000

 Dipole moment (field-independent basis, Debye):
    X=              4.0920    Y=             -0.0541    Z=              0.0281  Tot=              4.0924
 Quadrupole moment (field-independent basis, Debye-Ang):
   XX=            -21.3729   YY=            -17.6902   ZZ=            -17.6385
   XY=              0.2923   XZ=             -0.0109   YZ=              0.0644

 Normal termination of Gaussian 09 at Wed Aug 26 22:25:19 2020.
