 Gaussian 09, Revision D.01,
 Gaussian 09:  ES64L-G09RevD.01 24-Apr-2013

 --------------------
 #p B2PLYPD3/Def2QZVP
 --------------------

 ------------
 cyanomethane
 ------------
 Symbolic Z-matrix:
 Charge =  0 Multiplicity = 1

                         Standard orientation:
 ---------------------------------------------------------------------
 Center     Atomic      Atomic             Coordinates (Angstroms)
 Number     Number       Type             X           Y           Z
 ---------------------------------------------------------------------
      1          6           0       -1.207965   -0.023800   -0.022108
      2          6           0        0.296385    0.049866   -0.012248
      3          7           0        1.443794   -0.028950    0.006293
      4          1           0       -1.514888   -0.029702    1.006102
      5          1           0       -1.621926   -0.825044   -0.458926
      6          1           0       -1.500264    0.901004   -0.385090
 ---------------------------------------------------------------------

 SCF Done:  E(RB2PLYPD3) =  -132.524160685     A.U. after   12 cycles
 E2(B2PLYPD3) =    -0.1797569853D+00 E(B2PLYPD3) =    -0.13270391767071D+03

 The electronic state is 1-A.
 Alpha  occ. eigenvalues --  -14.84121 -10.66299 -10.65997  -1.04208  -0.89792
 Alpha  occ. eigenvalues --   -0.60019  -0.55861  -0.53393  -0.44711  -0.39614
 Alpha  occ. eigenvalues --   -0.39225
 Alpha virt. eigenvalues --    0.03852   0.08362   0.09086   0.10038   0.11066
 Alpha virt. eigenvalues --    0.11468   0.15187   0.15494   0.17528   0.19982
 Alpha virt. eigenvalues --    0.20191   0.24634   0.32612   0.34440   0.36074

 Mulliken charges:
               1
     1  C   -0.072239
     2  C   -0.001648
     3  N   -0.204405
     4  H    0.085751
     5  H    0.098000
     6  H    0.094541
 Sum of Mulliken charges =   0.00000

 Dipole moment (field-independent basis, Debye):
    X=             -4.1515    Y=              0.0563    Z=              0.0320  Tot=              4.1520
 Quadrupole moment (field-independent basis, Debye-Ang):
   XX=            -20.8327   YY=            -17.5616   ZZ=            -17.8893
   XY=              0.2102   XZ=             -0.1023   YZ=              0.0405

 Normal termination of Gaussian 09 at Wed Aug 26 23:29:06 2020.
