 Gaussian 09, Revision D.01,
 Gaussian 09:  ES64L-G09RevD.01 24-Apr-2013

 --------------------
 #p B2PLYPD3/Def2QZVP
 --------------------

 ------------
 cyanomethane
 ------------
 Symbolic Z-matrix:
 Charge =  0 Multiplicity = 1

                         Standard orientation:
 ---------------------------------------------------------------------
 Center     Atomic      Atomic             Coordinates (Angstroms)
 Number     Number       Type             X           Y           Z
 ---------------------------------------------------------------------
      1          6           0        1.177294    0.006513   -0.001980
      2          6           0       -0.283932   -0.017176   -0.009088
      3          7           0       -1.434354    0.009073    0.006241
      4          1           0        1.575271   -0.165315    1.003270
      5          1           0        1.563366    0.952974   -0.348980
      6          1           0        1.541670   -0.787198   -0.631568
 ---------------------------------------------------------------------

 SCF Done:  E(RB2PLYPD3) =  -132.535720159     A.U. after   11 cycles
 E2(B2PLYPD3) =    -0.1800916407D+00 E(B2PLYPD3) =    -0.13271581179952D+03

 The electronic state is 1-A.
 Alpha  occ. eigenvalues --  -14.84134 -10.66956 -10.66202  -1.04282  -0.89227
 Alpha  occ. eigenvalues --   -0.59927  -0.54239  -0.53504  -0.44814  -0.39252
 Alpha  occ. eigenvalues --   -0.39161
 Alpha virt. eigenvalues --    0.03779   0.07860   0.08192   0.10184   0.11412
 Alpha virt. eigenvalues --    0.11546   0.15432   0.16209   0.16749   0.20036
 Alpha virt. eigenvalues --    0.20100   0.25311   0.32798   0.34592   0.34963

 Mulliken charges:
               1
     1  C   -0.078439
     2  C   -0.001569
     3  N   -0.203941
     4  H    0.092767
     5  H    0.096216
     6  H    0.094966
 Sum of Mulliken charges =   0.00000

 Dipole moment (field-independent basis, Debye):
    X=              4.1287    Y=             -0.0182    Z=             -0.0070  Tot=              4.1288
 Quadrupole moment (field-independent basis, Debye-Ang):
   XX=            -20.9021   YY=            -17.7195   ZZ=            -17.8008
   XY=              0.0507   XZ=              0.0639   YZ=              0.0039

 Normal termination of Gaussian 09 at Thu Aug 27 00:09:26 2020.
