 Gaussian 09, Revision D.01,
 Gaussian 09:  ES64L-G09RevD.01 24-Apr-2013

 --------------------
 #p B2PLYPD3/Def2QZVP
 --------------------

 ------------
 cyanomethane
 ------------
 Symbolic Z-matrix:
 Charge =  0 Multiplicity = 1

                         Standard orientation:
 ---------------------------------------------------------------------
 Center     Atomic      Atomic             Coordinates (Angstroms)
 Number     Number       Type             X           Y           Z
 ---------------------------------------------------------------------
      1          6           0       -1.168903   -0.005054    0.020591
      2          6           0        0.271737    0.055523   -0.021391
      3          7           0        1.447610   -0.038153    0.015292
      4          1           0       -1.438821    0.989868   -0.132241
      5          1           0       -1.725484   -0.417953    0.848506
      6          1           0       -1.585971   -0.607654   -0.818512
 ---------------------------------------------------------------------

 SCF Done:  E(RB2PLYPD3) =  -132.521621695     A.U. after   13 cycles
 E2(B2PLYPD3) =    -0.1831604637D+00 E(B2PLYPD3) =    -0.13270478215852D+03

 The electronic state is 1-A.
 Alpha  occ. eigenvalues --  -14.85119 -10.67214 -10.66663  -1.03319  -0.89827
 Alpha  occ. eigenvalues --   -0.61628  -0.54816  -0.52151  -0.45116  -0.38530
 Alpha  occ. eigenvalues --   -0.38365
 Alpha virt. eigenvalues --    0.03554   0.06341   0.07989   0.09707   0.11198
 Alpha virt. eigenvalues --    0.11693   0.15195   0.15914   0.17860   0.20064
 Alpha virt. eigenvalues --    0.20711   0.25909   0.32739   0.34178   0.34963

 Mulliken charges:
               1
     1  C   -0.070163
     2  C    0.012574
     3  N   -0.216232
     4  H    0.095238
     5  H    0.093121
     6  H    0.085462
 Sum of Mulliken charges =   0.00000

 Dipole moment (field-independent basis, Debye):
    X=             -4.1682    Y=              0.0480    Z=             -0.0369  Tot=              4.1687
 Quadrupole moment (field-independent basis, Debye-Ang):
   XX=            -20.6191   YY=            -17.7945   ZZ=            -18.0919
   XY=              0.3709   XZ=             -0.1285   YZ=             -0.0355

 Normal termination of Gaussian 09 at Wed Aug 26 20:39:13 2020.
