 Gaussian 09, Revision D.01,
 Gaussian 09:  ES64L-G09RevD.01 24-Apr-2013

 --------------------
 #p B2PLYPD3/Def2QZVP
 --------------------

 ------------
 cyanomethane
 ------------
 Symbolic Z-matrix:
 Charge =  0 Multiplicity = 1

                         Standard orientation:
 ---------------------------------------------------------------------
 Center     Atomic      Atomic             Coordinates (Angstroms)
 Number     Number       Type             X           Y           Z
 ---------------------------------------------------------------------
      1          6           0       -1.193349   -0.011459    0.011004
      2          6           0        0.271739   -0.039689   -0.016451
      3          7           0        1.427962    0.013480    0.002580
      4          1           0       -1.424040    0.042636    1.014560
      5          1           0       -1.610681   -0.846572   -0.520512
      6          1           0       -1.431353    1.016462   -0.479421
 ---------------------------------------------------------------------

 SCF Done:  E(RB2PLYPD3) =  -132.526899681     A.U. after   12 cycles
 E2(B2PLYPD3) =    -0.1808387384D+00 E(B2PLYPD3) =    -0.13270773841936D+03

 The electronic state is 1-A.
 Alpha  occ. eigenvalues --  -14.84009 -10.67310 -10.66136  -1.03844  -0.89498
 Alpha  occ. eigenvalues --   -0.58557  -0.56001  -0.53101  -0.44513  -0.39054
 Alpha  occ. eigenvalues --   -0.38581
 Alpha virt. eigenvalues --    0.03604   0.07821   0.08562   0.10197   0.11082
 Alpha virt. eigenvalues --    0.11678   0.15088   0.15378   0.16201   0.20043
 Alpha virt. eigenvalues --    0.20230   0.25148   0.32004   0.33255   0.35652

 Mulliken charges:
               1
     1  C   -0.107977
     2  C   -0.002665
     3  N   -0.210781
     4  H    0.110877
     5  H    0.108906
     6  H    0.101640
 Sum of Mulliken charges =   0.00000

 Dipole moment (field-independent basis, Debye):
    X=             -4.1047    Y=             -0.0086    Z=              0.0214  Tot=              4.1048
 Quadrupole moment (field-independent basis, Debye-Ang):
   XX=            -21.4409   YY=            -17.5661   ZZ=            -17.7254
   XY=              0.0587   XZ=              0.0176   YZ=              0.0765

 Normal termination of Gaussian 09 at Wed Aug 26 23:33:17 2020.
