 Gaussian 09, Revision D.01,
 Gaussian 09:  ES64L-G09RevD.01 24-Apr-2013

 --------------------
 #p B2PLYPD3/Def2QZVP
 --------------------

 ------------
 cyanomethane
 ------------
 Symbolic Z-matrix:
 Charge =  0 Multiplicity = 1

                         Standard orientation:
 ---------------------------------------------------------------------
 Center     Atomic      Atomic             Coordinates (Angstroms)
 Number     Number       Type             X           Y           Z
 ---------------------------------------------------------------------
      1          6           0       -1.185080    0.019411    0.002150
      2          6           0        0.278656   -0.023636   -0.007477
      3          7           0        1.427300    0.010561    0.003768
      4          1           0       -1.518530    1.042345   -0.067708
      5          1           0       -1.517837   -0.485707    0.948376
      6          1           0       -1.516196   -0.605219   -0.875086
 ---------------------------------------------------------------------

 SCF Done:  E(RB2PLYPD3) =  -132.532879363     A.U. after   12 cycles
 E2(B2PLYPD3) =    -0.1802850012D+00 E(B2PLYPD3) =    -0.13271316436474D+03

 The electronic state is 1-A.
 Alpha  occ. eigenvalues --  -14.83883 -10.67830 -10.65953  -1.04216  -0.88806
 Alpha  occ. eigenvalues --   -0.58532  -0.54553  -0.53192  -0.44594  -0.39184
 Alpha  occ. eigenvalues --   -0.38929
 Alpha virt. eigenvalues --    0.03637   0.07894   0.08037   0.10153   0.11411
 Alpha virt. eigenvalues --    0.11654   0.15212   0.15584   0.16388   0.20047
 Alpha virt. eigenvalues --    0.20117   0.25226   0.32463   0.33533   0.34806

 Mulliken charges:
               1
     1  C   -0.106646
     2  C   -0.003095
     3  N   -0.204417
     4  H    0.109632
     5  H    0.102872
     6  H    0.101653
 Sum of Mulliken charges =   0.00000

 Dipole moment (field-independent basis, Debye):
    X=             -4.0903    Y=             -0.0214    Z=             -0.0052  Tot=              4.0903
 Quadrupole moment (field-independent basis, Debye-Ang):
   XX=            -21.3676   YY=            -17.5973   ZZ=            -17.7379
   XY=             -0.0434   XZ=             -0.0230   YZ=             -0.0143

 Normal termination of Gaussian 09 at Wed Aug 26 14:50:09 2020.
