 Gaussian 09, Revision D.01,
 Gaussian 09:  ES64L-G09RevD.01 24-Apr-2013

 --------------------
 #p B2PLYPD3/Def2QZVP
 --------------------

 ------------
 cyanomethane
 ------------
 Symbolic Z-matrix:
 Charge =  0 Multiplicity = 1

                         Standard orientation:
 ---------------------------------------------------------------------
 Center     Atomic      Atomic             Coordinates (Angstroms)
 Number     Number       Type             X           Y           Z
 ---------------------------------------------------------------------
      1          6           0       -1.190558   -0.009993    0.013755
      2          6           0        0.289886    0.033724   -0.009568
      3          7           0        1.435803   -0.014319    0.003846
      4          1           0       -1.546858   -0.177530    1.009879
      5          1           0       -1.522559   -0.864765   -0.667327
      6          1           0       -1.577167    1.000142   -0.394595
 ---------------------------------------------------------------------

 SCF Done:  E(RB2PLYPD3) =  -132.530373593     A.U. after   12 cycles
 E2(B2PLYPD3) =    -0.1803170586D+00 E(B2PLYPD3) =    -0.13271069065135D+03

 The electronic state is 1-A.
 Alpha  occ. eigenvalues --  -14.83967 -10.68376 -10.66093  -1.04343  -0.88112
 Alpha  occ. eigenvalues --   -0.58691  -0.53644  -0.52658  -0.44679  -0.39321
 Alpha  occ. eigenvalues --   -0.39126
 Alpha virt. eigenvalues --    0.03510   0.07572   0.08015   0.10177   0.11437
 Alpha virt. eigenvalues --    0.11582   0.15125   0.15953   0.16423   0.19998
 Alpha virt. eigenvalues --    0.20060   0.24977   0.31990   0.33475   0.34502

 Mulliken charges:
               1
     1  C   -0.106302
     2  C   -0.001775
     3  N   -0.201201
     4  H    0.107060
     5  H    0.102612
     6  H    0.099606
 Sum of Mulliken charges =   0.00000

 Dipole moment (field-independent basis, Debye):
    X=             -4.0950    Y=              0.0076    Z=              0.0109  Tot=              4.0950
 Quadrupole moment (field-independent basis, Debye-Ang):
   XX=            -21.2514   YY=            -17.6905   ZZ=            -17.7796
   XY=              0.0698   XZ=             -0.0630   YZ=             -0.0074

 Normal termination of Gaussian 09 at Wed Aug 26 12:38:39 2020.
