 Gaussian 09, Revision D.01,
 Gaussian 09:  ES64L-G09RevD.01 24-Apr-2013

 --------------------
 #p B2PLYPD3/Def2QZVP
 --------------------

 ------------
 cyanomethane
 ------------
 Symbolic Z-matrix:
 Charge =  0 Multiplicity = 1

                         Standard orientation:
 ---------------------------------------------------------------------
 Center     Atomic      Atomic             Coordinates (Angstroms)
 Number     Number       Type             X           Y           Z
 ---------------------------------------------------------------------
      1          6           0        1.204955    0.015739   -0.025736
      2          6           0       -0.290790   -0.064968    0.025448
      3          7           0       -1.441216    0.021416   -0.000917
      4          1           0        1.678077    0.019190    1.004600
      5          1           0        1.343019    1.015460   -0.468760
      6          1           0        1.582425   -0.889189   -0.527690
 ---------------------------------------------------------------------

 SCF Done:  E(RB2PLYPD3) =  -132.527422547     A.U. after   12 cycles
 E2(B2PLYPD3) =    -0.1809804302D+00 E(B2PLYPD3) =    -0.13270840297705D+03

 The electronic state is 1-A.
 Alpha  occ. eigenvalues --  -14.84097 -10.68339 -10.66298  -1.04003  -0.88140
 Alpha  occ. eigenvalues --   -0.58302  -0.55158  -0.51742  -0.44575  -0.39224
 Alpha  occ. eigenvalues --   -0.38902
 Alpha virt. eigenvalues --    0.03485   0.07450   0.08304   0.10312   0.11056
 Alpha virt. eigenvalues --    0.11614   0.14481   0.16026   0.16265   0.19936
 Alpha virt. eigenvalues --    0.20127   0.24865   0.31911   0.33367   0.34968

 Mulliken charges:
               1
     1  C   -0.104993
     2  C   -0.002429
     3  N   -0.206462
     4  H    0.092657
     5  H    0.114936
     6  H    0.106291
 Sum of Mulliken charges =   0.00000

 Dipole moment (field-independent basis, Debye):
    X=              4.1222    Y=             -0.0236    Z=              0.0307  Tot=              4.1224
 Quadrupole moment (field-independent basis, Debye-Ang):
   XX=            -21.2601   YY=            -17.4593   ZZ=            -18.0736
   XY=             -0.0943   XZ=              0.2529   YZ=              0.0039

 Normal termination of Gaussian 09 at Wed Aug 26 23:10:59 2020.
