 Gaussian 09, Revision D.01,
 Gaussian 09:  ES64L-G09RevD.01 24-Apr-2013

 --------------------
 #p B2PLYPD3/Def2QZVP
 --------------------

 ------------
 cyanomethane
 ------------
 Symbolic Z-matrix:
 Charge =  0 Multiplicity = 1

                         Standard orientation:
 ---------------------------------------------------------------------
 Center     Atomic      Atomic             Coordinates (Angstroms)
 Number     Number       Type             X           Y           Z
 ---------------------------------------------------------------------
      1          6           0        1.162673   -0.017056    0.006815
      2          6           0       -0.282209   -0.002300    0.035001
      3          7           0       -1.425491    0.008346   -0.017105
      4          1           0        1.628949    1.047672   -0.196163
      5          1           0        1.498217   -0.633338   -0.834330
      6          1           0        1.568485   -0.356620    0.899331
 ---------------------------------------------------------------------

 SCF Done:  E(RB2PLYPD3) =  -132.529312700     A.U. after   12 cycles
 E2(B2PLYPD3) =    -0.1799100891D+00 E(B2PLYPD3) =    -0.13270922278904D+03

 The electronic state is 1-A.
 Alpha  occ. eigenvalues --  -14.83983 -10.67336 -10.65987  -1.04611  -0.89139
 Alpha  occ. eigenvalues --   -0.60190  -0.54873  -0.51930  -0.44853  -0.39455
 Alpha  occ. eigenvalues --   -0.39010
 Alpha virt. eigenvalues --    0.03533   0.07128   0.08434   0.10171   0.11418
 Alpha virt. eigenvalues --    0.11968   0.15522   0.16428   0.16727   0.19950
 Alpha virt. eigenvalues --    0.20120   0.25623   0.32253   0.33870   0.35149

 Mulliken charges:
               1
     1  C   -0.084205
     2  C   -0.000017
     3  N   -0.200075
     4  H    0.086799
     5  H    0.097625
     6  H    0.099873
 Sum of Mulliken charges =   0.00000

 Dipole moment (field-independent basis, Debye):
    X=              4.0958    Y=             -0.0373    Z=              0.0228  Tot=              4.0961
 Quadrupole moment (field-independent basis, Debye-Ang):
   XX=            -20.9090   YY=            -17.8272   ZZ=            -17.7047
   XY=              0.0902   XZ=             -0.0714   YZ=             -0.0012

 Normal termination of Gaussian 09 at Wed Aug 26 10:41:54 2020.
