 Gaussian 09, Revision D.01,
 Gaussian 09:  ES64L-G09RevD.01 24-Apr-2013

 --------------------
 #p B2PLYPD3/Def2QZVP
 --------------------

 ------------
 cyanomethane
 ------------
 Symbolic Z-matrix:
 Charge =  0 Multiplicity = 1

                         Standard orientation:
 ---------------------------------------------------------------------
 Center     Atomic      Atomic             Coordinates (Angstroms)
 Number     Number       Type             X           Y           Z
 ---------------------------------------------------------------------
      1          6           0       -1.175480    0.014898    0.014589
      2          6           0        0.272206    0.050158   -0.002870
      3          7           0        1.431032   -0.038246    0.003846
      4          1           0       -1.390229    1.015118   -0.146367
      5          1           0       -1.636899   -0.463096    0.861869
      6          1           0       -1.570455   -0.674632   -0.812736
 ---------------------------------------------------------------------

 SCF Done:  E(RB2PLYPD3) =  -132.523170430     A.U. after   12 cycles
 E2(B2PLYPD3) =    -0.1814885004D+00 E(B2PLYPD3) =    -0.13270465893040D+03

 The electronic state is 1-A.
 Alpha  occ. eigenvalues --  -14.84375 -10.66962 -10.66406  -1.03855  -0.89724
 Alpha  occ. eigenvalues --   -0.60377  -0.55991  -0.51708  -0.44797  -0.38963
 Alpha  occ. eigenvalues --   -0.38493
 Alpha virt. eigenvalues --    0.03562   0.06890   0.08615   0.09948   0.11010
 Alpha virt. eigenvalues --    0.11898   0.15015   0.15997   0.17004   0.19932
 Alpha virt. eigenvalues --    0.20354   0.25600   0.32608   0.33560   0.35526

 Mulliken charges:
               1
     1  C   -0.085706
     2  C    0.001901
     3  N   -0.210655
     4  H    0.107971
     5  H    0.097402
     6  H    0.089088
 Sum of Mulliken charges =   0.00000

 Dipole moment (field-independent basis, Debye):
    X=             -4.1160    Y=              0.0116    Z=             -0.0011  Tot=              4.1160
 Quadrupole moment (field-independent basis, Debye-Ang):
   XX=            -21.0534   YY=            -17.4693   ZZ=            -18.0625
   XY=              0.5037   XZ=             -0.0878   YZ=             -0.0900

 Normal termination of Gaussian 09 at Wed Aug 26 19:19:54 2020.
