 Gaussian 09, Revision D.01,
 Gaussian 09:  ES64L-G09RevD.01 24-Apr-2013

 --------------------
 #p B2PLYPD3/Def2QZVP
 --------------------

 ------------
 cyanomethane
 ------------
 Symbolic Z-matrix:
 Charge =  0 Multiplicity = 1

                         Standard orientation:
 ---------------------------------------------------------------------
 Center     Atomic      Atomic             Coordinates (Angstroms)
 Number     Number       Type             X           Y           Z
 ---------------------------------------------------------------------
      1          6           0        1.180397    0.015662    0.010464
      2          6           0       -0.285668   -0.078892    0.005227
      3          7           0       -1.411860    0.040046   -0.000017
      4          1           0        1.555466   -0.036759    0.967705
      5          1           0        1.482779    0.985535   -0.471383
      6          1           0        1.476400   -0.849717   -0.590350
 ---------------------------------------------------------------------

 SCF Done:  E(RB2PLYPD3) =  -132.530138745     A.U. after   12 cycles
 E2(B2PLYPD3) =    -0.1786998613D+00 E(B2PLYPD3) =    -0.13270883860653D+03

 The electronic state is 1-A.
 Alpha  occ. eigenvalues --  -14.83432 -10.66934 -10.65406  -1.04927  -0.89237
 Alpha  occ. eigenvalues --   -0.59022  -0.54556  -0.53761  -0.44568  -0.39667
 Alpha  occ. eigenvalues --   -0.39408
 Alpha virt. eigenvalues --    0.03606   0.08166   0.09000   0.10138   0.11521
 Alpha virt. eigenvalues --    0.11666   0.15323   0.15491   0.16868   0.19918
 Alpha virt. eigenvalues --    0.20033   0.25598   0.33108   0.33933   0.34958

 Mulliken charges:
               1
     1  C   -0.100910
     2  C   -0.005969
     3  N   -0.195459
     4  H    0.101698
     5  H    0.101621
     6  H    0.099018
 Sum of Mulliken charges =   0.00000

 Dipole moment (field-independent basis, Debye):
    X=              4.0406    Y=             -0.0665    Z=              0.0139  Tot=              4.0411
 Quadrupole moment (field-independent basis, Debye-Ang):
   XX=            -21.2468   YY=            -17.5083   ZZ=            -17.6671
   XY=              0.2279   XZ=              0.1028   YZ=              0.0123

 Normal termination of Gaussian 09 at Wed Aug 26 18:50:33 2020.
