 Gaussian 09, Revision D.01,
 Gaussian 09:  ES64L-G09RevD.01 24-Apr-2013

 --------------------
 #p B2PLYPD3/Def2QZVP
 --------------------

 ------------
 cyanomethane
 ------------
 Symbolic Z-matrix:
 Charge =  0 Multiplicity = 1

                         Standard orientation:
 ---------------------------------------------------------------------
 Center     Atomic      Atomic             Coordinates (Angstroms)
 Number     Number       Type             X           Y           Z
 ---------------------------------------------------------------------
      1          6           0        1.163478    0.006972   -0.018133
      2          6           0       -0.285213   -0.037744    0.000765
      3          7           0       -1.429281    0.015119    0.006016
      4          1           0        1.636778    0.054416    1.021998
      5          1           0        1.499145    0.897918   -0.504570
      6          1           0        1.599458   -0.873532   -0.455329
 ---------------------------------------------------------------------

 SCF Done:  E(RB2PLYPD3) =  -132.532651524     A.U. after   11 cycles
 E2(B2PLYPD3) =    -0.1798995655D+00 E(B2PLYPD3) =    -0.13271255108927D+03

 The electronic state is 1-A.
 Alpha  occ. eigenvalues --  -14.84061 -10.67150 -10.66088  -1.04601  -0.89109
 Alpha  occ. eigenvalues --   -0.60411  -0.54757  -0.52047  -0.44902  -0.39478
 Alpha  occ. eigenvalues --   -0.39093
 Alpha virt. eigenvalues --    0.03676   0.07383   0.08178   0.10176   0.11436
 Alpha virt. eigenvalues --    0.11896   0.15505   0.16677   0.16785   0.19941
 Alpha virt. eigenvalues --    0.20118   0.25611   0.32644   0.34043   0.35373

 Mulliken charges:
               1
     1  C   -0.075027
     2  C    0.000693
     3  N   -0.200359
     4  H    0.083313
     5  H    0.097659
     6  H    0.093720
 Sum of Mulliken charges =   0.00000

 Dipole moment (field-independent basis, Debye):
    X=              4.1131    Y=             -0.0158    Z=             -0.0068  Tot=              4.1131
 Quadrupole moment (field-independent basis, Debye-Ang):
   XX=            -20.7738   YY=            -17.6653   ZZ=            -17.9385
   XY=              0.0324   XZ=              0.1250   YZ=             -0.0181

 Normal termination of Gaussian 09 at Wed Aug 26 15:29:31 2020.
