 Gaussian 09, Revision D.01,
 Gaussian 09:  ES64L-G09RevD.01 24-Apr-2013

 --------------------
 #p B2PLYPD3/Def2QZVP
 --------------------

 ------------
 cyanomethane
 ------------
 Symbolic Z-matrix:
 Charge =  0 Multiplicity = 1

                         Standard orientation:
 ---------------------------------------------------------------------
 Center     Atomic      Atomic             Coordinates (Angstroms)
 Number     Number       Type             X           Y           Z
 ---------------------------------------------------------------------
      1          6           0        1.180704    0.003279    0.005704
      2          6           0       -0.270696    0.003747   -0.023629
      3          7           0       -1.429694   -0.006635    0.007546
      4          1           0        1.457755    1.023643    0.009565
      5          1           0        1.596175   -0.517906   -0.827808
      6          1           0        1.493884   -0.501447    0.872970
 ---------------------------------------------------------------------

 SCF Done:  E(RB2PLYPD3) =  -132.532887307     A.U. after   12 cycles
 E2(B2PLYPD3) =    -0.1805098767D+00 E(B2PLYPD3) =    -0.13271339718411D+03

 The electronic state is 1-A.
 Alpha  occ. eigenvalues --  -14.84189 -10.66243 -10.66153  -1.03878  -0.90170
 Alpha  occ. eigenvalues --   -0.59765  -0.55530  -0.54347  -0.44687  -0.38938
 Alpha  occ. eigenvalues --   -0.38880
 Alpha virt. eigenvalues --    0.03908   0.08064   0.08473   0.10196   0.11256
 Alpha virt. eigenvalues --    0.11440   0.15369   0.15942   0.16338   0.20114
 Alpha virt. eigenvalues --    0.20173   0.25443   0.32895   0.34988   0.35101

 Mulliken charges:
               1
     1  C   -0.080643
     2  C   -0.002586
     3  N   -0.210889
     4  H    0.101743
     5  H    0.094219
     6  H    0.098156
 Sum of Mulliken charges =   0.00000

 Dipole moment (field-independent basis, Debye):
    X=              4.1349    Y=             -0.0029    Z=             -0.0019  Tot=              4.1349
 Quadrupole moment (field-independent basis, Debye-Ang):
   XX=            -21.0697   YY=            -17.5762   ZZ=            -17.7844
   XY=             -0.1471   XZ=             -0.0140   YZ=             -0.0151

 Normal termination of Gaussian 09 at Wed Aug 26 09:51:50 2020.
