 Gaussian 09, Revision D.01,
 Gaussian 09:  ES64L-G09RevD.01 24-Apr-2013

 --------------------
 #p B2PLYPD3/Def2QZVP
 --------------------

 ------------
 cyanomethane
 ------------
 Symbolic Z-matrix:
 Charge =  0 Multiplicity = 1

                         Standard orientation:
 ---------------------------------------------------------------------
 Center     Atomic      Atomic             Coordinates (Angstroms)
 Number     Number       Type             X           Y           Z
 ---------------------------------------------------------------------
      1          6           0       -1.187990   -0.002128    0.009792
      2          6           0        0.286107    0.019224   -0.008330
      3          7           0        1.427900   -0.006214    0.005542
      4          1           0       -1.540562   -0.334797    0.988889
      5          1           0       -1.475159   -0.745607   -0.787220
      6          1           0       -1.568278    1.021326   -0.249237
 ---------------------------------------------------------------------

 SCF Done:  E(RB2PLYPD3) =  -132.533342532     A.U. after   12 cycles
 E2(B2PLYPD3) =    -0.1797366224D+00 E(B2PLYPD3) =    -0.13271307915420D+03

 The electronic state is 1-A.
 Alpha  occ. eigenvalues --  -14.83720 -10.68039 -10.65820  -1.04491  -0.88457
 Alpha  occ. eigenvalues --   -0.58407  -0.53912  -0.53313  -0.44581  -0.39371
 Alpha  occ. eigenvalues --   -0.39193
 Alpha virt. eigenvalues --    0.03614   0.08008   0.08093   0.10214   0.11494
 Alpha virt. eigenvalues --    0.11691   0.15149   0.15774   0.16410   0.20013
 Alpha virt. eigenvalues --    0.20069   0.25026   0.32414   0.33695   0.34593

 Mulliken charges:
               1
     1  C   -0.107901
     2  C   -0.004834
     3  N   -0.199800
     4  H    0.106227
     5  H    0.103189
     6  H    0.103118
 Sum of Mulliken charges =   0.00000

 Dipole moment (field-independent basis, Debye):
    X=             -4.0884    Y=             -0.0008    Z=             -0.0081  Tot=              4.0884
 Quadrupole moment (field-independent basis, Debye-Ang):
   XX=            -21.3192   YY=            -17.6577   ZZ=            -17.6883
   XY=             -0.0061   XZ=             -0.0701   YZ=             -0.0238

 Normal termination of Gaussian 09 at Wed Aug 26 13:37:12 2020.
