 Gaussian 09, Revision D.01,
 Gaussian 09:  ES64L-G09RevD.01 24-Apr-2013

 --------------------
 #p B2PLYPD3/Def2QZVP
 --------------------

 ------------
 cyanomethane
 ------------
 Symbolic Z-matrix:
 Charge =  0 Multiplicity = 1

                         Standard orientation:
 ---------------------------------------------------------------------
 Center     Atomic      Atomic             Coordinates (Angstroms)
 Number     Number       Type             X           Y           Z
 ---------------------------------------------------------------------
      1          6           0        1.179931   -0.001555   -0.001009
      2          6           0       -0.279371    0.020155    0.002629
      3          7           0       -1.437661   -0.010410   -0.002787
      4          1           0        1.556724    1.017800   -0.151898
      5          1           0        1.569577   -0.666072   -0.788080
      6          1           0        1.533965   -0.390460    0.949768
 ---------------------------------------------------------------------

 SCF Done:  E(RB2PLYPD3) =  -132.534931040     A.U. after   12 cycles
 E2(B2PLYPD3) =    -0.1809044919D+00 E(B2PLYPD3) =    -0.13271583553151D+03

 The electronic state is 1-A.
 Alpha  occ. eigenvalues --  -14.84321 -10.67335 -10.66398  -1.03947  -0.89068
 Alpha  occ. eigenvalues --   -0.59639  -0.54074  -0.53493  -0.44805  -0.38992
 Alpha  occ. eigenvalues --   -0.38925
 Alpha virt. eigenvalues --    0.03714   0.07644   0.07918   0.10163   0.11330
 Alpha virt. eigenvalues --    0.11500   0.15366   0.16137   0.16487   0.20067
 Alpha virt. eigenvalues --    0.20141   0.25320   0.32607   0.34446   0.34632

 Mulliken charges:
               1
     1  C   -0.085858
     2  C   -0.000525
     3  N   -0.207810
     4  H    0.098807
     5  H    0.097343
     6  H    0.098044
 Sum of Mulliken charges =   0.00000

 Dipole moment (field-independent basis, Debye):
    X=              4.1319    Y=              0.0025    Z=              0.0125  Tot=              4.1319
 Quadrupole moment (field-independent basis, Debye-Ang):
   XX=            -21.0261   YY=            -17.7079   ZZ=            -17.8356
   XY=             -0.0871   XZ=             -0.0216   YZ=             -0.0116

 Normal termination of Gaussian 09 at Thu Aug 27 00:05:11 2020.
