 Gaussian 09, Revision D.01,
 Gaussian 09:  ES64L-G09RevD.01 24-Apr-2013

 --------------------
 #p B2PLYPD3/Def2QZVP
 --------------------

 ------------
 cyanomethane
 ------------
 Symbolic Z-matrix:
 Charge =  0 Multiplicity = 1

                         Standard orientation:
 ---------------------------------------------------------------------
 Center     Atomic      Atomic             Coordinates (Angstroms)
 Number     Number       Type             X           Y           Z
 ---------------------------------------------------------------------
      1          6           0        1.149731   -0.020436   -0.002152
      2          6           0       -0.259754   -0.043205    0.065825
      3          7           0       -1.431956    0.026832   -0.026291
      4          1           0        1.475231   -0.742210   -0.723102
      5          1           0        1.661879   -0.091883    0.941803
      6          1           0        1.546724    1.028123   -0.416701
 ---------------------------------------------------------------------

 SCF Done:  E(RB2PLYPD3) =  -132.522460698     A.U. after   12 cycles
 E2(B2PLYPD3) =    -0.1831611625D+00 E(B2PLYPD3) =    -0.13270562186008D+03

 The electronic state is 1-A.
 Alpha  occ. eigenvalues --  -14.84917 -10.67397 -10.66838  -1.03426  -0.89616
 Alpha  occ. eigenvalues --   -0.60961  -0.55365  -0.51476  -0.45052  -0.38566
 Alpha  occ. eigenvalues --   -0.37899
 Alpha virt. eigenvalues --    0.03133   0.06427   0.07413   0.10028   0.11125
 Alpha virt. eigenvalues --    0.11896   0.15634   0.16259   0.16637   0.20046
 Alpha virt. eigenvalues --    0.20282   0.26301   0.32245   0.33054   0.35446

 Mulliken charges:
               1
     1  C   -0.081635
     2  C    0.009352
     3  N   -0.215458
     4  H    0.103347
     5  H    0.097409
     6  H    0.086985
 Sum of Mulliken charges =   0.00000

 Dipole moment (field-independent basis, Debye):
    X=              4.1289    Y=             -0.0268    Z=              0.0220  Tot=              4.1291
 Quadrupole moment (field-independent basis, Debye-Ang):
   XX=            -20.9024   YY=            -17.9479   ZZ=            -17.8040
   XY=              0.2213   XZ=             -0.0288   YZ=              0.1375

 Normal termination of Gaussian 09 at Wed Aug 26 22:20:29 2020.
