 Gaussian 09, Revision D.01,
 Gaussian 09:  ES64L-G09RevD.01 24-Apr-2013

 --------------------
 #p B2PLYPD3/Def2QZVP
 --------------------

 ------------
 cyanomethane
 ------------
 Symbolic Z-matrix:
 Charge =  0 Multiplicity = 1

                         Standard orientation:
 ---------------------------------------------------------------------
 Center     Atomic      Atomic             Coordinates (Angstroms)
 Number     Number       Type             X           Y           Z
 ---------------------------------------------------------------------
      1          6           0       -1.174668   -0.024066   -0.010727
      2          6           0        0.306949    0.072060   -0.001983
      3          7           0        1.438578   -0.039462    0.000876
      4          1           0       -1.600280   -0.015309    1.043463
      5          1           0       -1.674810   -0.884811   -0.496405
      6          1           0       -1.588644    0.888391   -0.476930
 ---------------------------------------------------------------------

 SCF Done:  E(RB2PLYPD3) =  -132.528465781     A.U. after   12 cycles
 E2(B2PLYPD3) =    -0.1797832275D+00 E(B2PLYPD3) =    -0.13270824900871D+03

 The electronic state is 1-A.
 Alpha  occ. eigenvalues --  -14.84074 -10.68063 -10.66210  -1.05015  -0.87852
 Alpha  occ. eigenvalues --   -0.60168  -0.52688  -0.51861  -0.45029  -0.39744
 Alpha  occ. eigenvalues --   -0.39582
 Alpha virt. eigenvalues --    0.03431   0.07217   0.08091   0.09997   0.11541
 Alpha virt. eigenvalues --    0.11781   0.15452   0.16023   0.17955   0.19868
 Alpha virt. eigenvalues --    0.20283   0.25398   0.32573   0.33866   0.34491

 Mulliken charges:
               1
     1  C   -0.079155
     2  C    0.004620
     3  N   -0.193050
     4  H    0.085546
     5  H    0.094856
     6  H    0.087182
 Sum of Mulliken charges =   0.00000

 Dipole moment (field-independent basis, Debye):
    X=             -4.0917    Y=              0.0739    Z=              0.0051  Tot=              4.0924
 Quadrupole moment (field-independent basis, Debye-Ang):
   XX=            -20.6207   YY=            -17.8486   ZZ=            -17.9511
   XY=              0.2653   XZ=             -0.0072   YZ=              0.0124

 Normal termination of Gaussian 09 at Wed Aug 26 22:35:10 2020.
