 Gaussian 09, Revision D.01,
 Gaussian 09:  ES64L-G09RevD.01 24-Apr-2013

 --------------------
 #p B2PLYPD3/Def2QZVP
 --------------------

 ------------
 cyanomethane
 ------------
 Symbolic Z-matrix:
 Charge =  0 Multiplicity = 1

                         Standard orientation:
 ---------------------------------------------------------------------
 Center     Atomic      Atomic             Coordinates (Angstroms)
 Number     Number       Type             X           Y           Z
 ---------------------------------------------------------------------
      1          6           0       -1.176107   -0.002050   -0.005971
      2          6           0        0.276283    0.005465   -0.009884
      3          7           0        1.428156   -0.000207    0.008268
      4          1           0       -1.565300   -0.060478    1.006602
      5          1           0       -1.486633   -0.873876   -0.530068
      6          1           0       -1.546209    0.915310   -0.439275
 ---------------------------------------------------------------------

 SCF Done:  E(RB2PLYPD3) =  -132.535150903     A.U. after   11 cycles
 E2(B2PLYPD3) =    -0.1800771583D+00 E(B2PLYPD3) =    -0.13271522806097D+03

 The electronic state is 1-A.
 Alpha  occ. eigenvalues --  -14.84040 -10.66680 -10.66071  -1.04189  -0.89652
 Alpha  occ. eigenvalues --   -0.59675  -0.55147  -0.53598  -0.44717  -0.39165
 Alpha  occ. eigenvalues --   -0.39004
 Alpha virt. eigenvalues --    0.03832   0.07923   0.08373   0.10189   0.11349
 Alpha virt. eigenvalues --    0.11607   0.15424   0.16149   0.16397   0.20049
 Alpha virt. eigenvalues --    0.20144   0.25424   0.32908   0.34490   0.35127

 Mulliken charges:
               1
     1  C   -0.083132
     2  C   -0.003095
     3  N   -0.205976
     4  H    0.093329
     5  H    0.100512
     6  H    0.098361
 Sum of Mulliken charges =   0.00000

 Dipole moment (field-independent basis, Debye):
    X=             -4.1220    Y=             -0.0048    Z=              0.0041  Tot=              4.1220
 Quadrupole moment (field-independent basis, Debye-Ang):
   XX=            -21.0434   YY=            -17.5843   ZZ=            -17.8120
   XY=             -0.0312   XZ=             -0.1314   YZ=              0.0177

 Normal termination of Gaussian 09 at Thu Aug 27 00:04:36 2020.
