 Gaussian 09, Revision D.01,
 Gaussian 09:  ES64L-G09RevD.01 24-Apr-2013

 --------------------
 #p B2PLYPD3/Def2QZVP
 --------------------

 ------------
 cyanomethane
 ------------
 Symbolic Z-matrix:
 Charge =  0 Multiplicity = 1

                         Standard orientation:
 ---------------------------------------------------------------------
 Center     Atomic      Atomic             Coordinates (Angstroms)
 Number     Number       Type             X           Y           Z
 ---------------------------------------------------------------------
      1          6           0       -1.165124    0.009332   -0.016581
      2          6           0        0.281441    0.025093    0.027210
      3          7           0        1.426236   -0.016426   -0.020547
      4          1           0       -1.659678   -0.752770   -0.711459
      5          1           0       -1.558984    0.991055   -0.211985
      6          1           0       -1.462888   -0.329855    1.003493
 ---------------------------------------------------------------------

 SCF Done:  E(RB2PLYPD3) =  -132.530294894     A.U. after   12 cycles
 E2(B2PLYPD3) =    -0.1802810996D+00 E(B2PLYPD3) =    -0.13271057599408D+03

 The electronic state is 1-A.
 Alpha  occ. eigenvalues --  -14.84011 -10.67622 -10.66050  -1.04509  -0.88931
 Alpha  occ. eigenvalues --   -0.59849  -0.54403  -0.52156  -0.44833  -0.39346
 Alpha  occ. eigenvalues --   -0.38901
 Alpha virt. eigenvalues --    0.03546   0.07111   0.08236   0.10104   0.11463
 Alpha virt. eigenvalues --    0.11914   0.15483   0.15569   0.17548   0.20023
 Alpha virt. eigenvalues --    0.20203   0.25673   0.32786   0.33398   0.34957

 Mulliken charges:
               1
     1  C   -0.091016
     2  C    0.001620
     3  N   -0.201416
     4  H    0.094914
     5  H    0.101775
     6  H    0.094123
 Sum of Mulliken charges =   0.00000

 Dipole moment (field-independent basis, Debye):
    X=             -4.0993    Y=              0.0130    Z=              0.0638  Tot=              4.0998
 Quadrupole moment (field-independent basis, Debye-Ang):
   XX=            -20.9664   YY=            -17.6538   ZZ=            -17.8966
   XY=              0.1617   XZ=              0.1770   YZ=             -0.0479

 Normal termination of Gaussian 09 at Wed Aug 26 11:19:11 2020.
