 Gaussian 09, Revision D.01,
 Gaussian 09:  ES64L-G09RevD.01 24-Apr-2013

 --------------------
 #p B2PLYPD3/Def2QZVP
 --------------------

 ------------
 cyanomethane
 ------------
 Symbolic Z-matrix:
 Charge =  0 Multiplicity = 1

                         Standard orientation:
 ---------------------------------------------------------------------
 Center     Atomic      Atomic             Coordinates (Angstroms)
 Number     Number       Type             X           Y           Z
 ---------------------------------------------------------------------
      1          6           0        1.173713    0.000536   -0.017182
      2          6           0       -0.280984   -0.026858   -0.059623
      3          7           0       -1.446095    0.021851    0.032372
      4          1           0        1.551736   -0.565876   -0.858179
      5          1           0        1.528490   -0.556840    1.028192
      6          1           0        1.686068    1.127686    0.064212
 ---------------------------------------------------------------------

 SCF Done:  E(RB2PLYPD3) =  -132.508236419     A.U. after   12 cycles
 E2(B2PLYPD3) =    -0.1835707435D+00 E(B2PLYPD3) =    -0.13269180716210D+03

 The electronic state is 1-A.
 Alpha  occ. eigenvalues --  -14.84832 -10.69876 -10.66917  -1.03649  -0.87537
 Alpha  occ. eigenvalues --   -0.58940  -0.53403  -0.50113  -0.45005  -0.38784
 Alpha  occ. eigenvalues --   -0.38166
 Alpha virt. eigenvalues --    0.02648   0.05222   0.07565   0.10025   0.11043
 Alpha virt. eigenvalues --    0.11956   0.15208   0.15637   0.16983   0.19944
 Alpha virt. eigenvalues --    0.20294   0.25449   0.31046   0.31364   0.33835

 Mulliken charges:
               1
     1  C   -0.115238
     2  C    0.010645
     3  N   -0.208160
     4  H    0.113021
     5  H    0.097848
     6  H    0.101884
 Sum of Mulliken charges =   0.00000

 Dipole moment (field-independent basis, Debye):
    X=              4.0842    Y=             -0.0518    Z=             -0.0407  Tot=              4.0847
 Quadrupole moment (field-independent basis, Debye-Ang):
   XX=            -21.2137   YY=            -17.9010   ZZ=            -17.9410
   XY=              0.1963   XZ=              0.1800   YZ=              0.1267

 Normal termination of Gaussian 09 at Wed Aug 26 19:41:34 2020.
