 Gaussian 09, Revision D.01,
 Gaussian 09:  ES64L-G09RevD.01 24-Apr-2013

 --------------------
 #p B2PLYPD3/Def2QZVP
 --------------------

 ------------
 cyanomethane
 ------------
 Symbolic Z-matrix:
 Charge =  0 Multiplicity = 1

                         Standard orientation:
 ---------------------------------------------------------------------
 Center     Atomic      Atomic             Coordinates (Angstroms)
 Number     Number       Type             X           Y           Z
 ---------------------------------------------------------------------
      1          6           0        1.211250    0.025141    0.006418
      2          6           0       -0.294793   -0.082329   -0.010784
      3          7           0       -1.433642    0.039917    0.005741
      4          1           0        1.494784    0.994673   -0.155397
      5          1           0        1.515492   -0.593734   -0.757715
      6          1           0        1.526479   -0.337230    0.899123
 ---------------------------------------------------------------------

 SCF Done:  E(RB2PLYPD3) =  -132.524440519     A.U. after   12 cycles
 E2(B2PLYPD3) =    -0.1791132241D+00 E(B2PLYPD3) =    -0.13270355374273D+03

 The electronic state is 1-A.
 Alpha  occ. eigenvalues --  -14.83884 -10.65934 -10.65532  -1.04339  -0.90103
 Alpha  occ. eigenvalues --   -0.58705  -0.55965  -0.55301  -0.44573  -0.39606
 Alpha  occ. eigenvalues --   -0.39480
 Alpha virt. eigenvalues --    0.03840   0.08690   0.09547   0.10178   0.11069
 Alpha virt. eigenvalues --    0.11206   0.15210   0.15468   0.16798   0.19968
 Alpha virt. eigenvalues --    0.20071   0.24906   0.32851   0.35416   0.35882

 Mulliken charges:
               1
     1  C   -0.077212
     2  C   -0.008366
     3  N   -0.202683
     4  H    0.099253
     5  H    0.093377
     6  H    0.095631
 Sum of Mulliken charges =   0.00000

 Dipole moment (field-independent basis, Debye):
    X=              4.1193    Y=             -0.0695    Z=             -0.0121  Tot=              4.1199
 Quadrupole moment (field-independent basis, Debye-Ang):
   XX=            -20.9782   YY=            -17.5685   ZZ=            -17.6663
   XY=              0.1698   XZ=              0.0369   YZ=             -0.0274

 Normal termination of Gaussian 09 at Wed Aug 26 19:00:01 2020.
