 Gaussian 09, Revision D.01,
 Gaussian 09:  ES64L-G09RevD.01 24-Apr-2013

 --------------------
 #p B2PLYPD3/Def2QZVP
 --------------------

 ------------
 cyanomethane
 ------------
 Symbolic Z-matrix:
 Charge =  0 Multiplicity = 1

                         Standard orientation:
 ---------------------------------------------------------------------
 Center     Atomic      Atomic             Coordinates (Angstroms)
 Number     Number       Type             X           Y           Z
 ---------------------------------------------------------------------
      1          6           0       -1.200709    0.016969    0.007491
      2          6           0        0.274325   -0.057880   -0.008277
      3          7           0        1.448225    0.023634   -0.009291
      4          1           0       -1.369919   -0.262279    0.973832
      5          1           0       -1.701001   -0.700471   -0.686114
      6          1           0       -1.508354    1.042776   -0.217964
 ---------------------------------------------------------------------

 SCF Done:  E(RB2PLYPD3) =  -132.524558790     A.U. after   13 cycles
 E2(B2PLYPD3) =    -0.1824891194D+00 E(B2PLYPD3) =    -0.13270704790905D+03

 The electronic state is 1-A.
 Alpha  occ. eigenvalues --  -14.84749 -10.67074 -10.66919  -1.03188  -0.89571
 Alpha  occ. eigenvalues --   -0.59017  -0.55582  -0.53392  -0.44720  -0.38597
 Alpha  occ. eigenvalues --   -0.38521
 Alpha virt. eigenvalues --    0.03635   0.07090   0.08570   0.10184   0.11055
 Alpha virt. eigenvalues --    0.11158   0.14934   0.15262   0.16837   0.20169
 Alpha virt. eigenvalues --    0.20206   0.25156   0.31948   0.34644   0.35017

 Mulliken charges:
               1
     1  C   -0.095900
     2  C    0.001633
     3  N   -0.217640
     4  H    0.109739
     5  H    0.096206
     6  H    0.105962
 Sum of Mulliken charges =   0.00000

 Dipole moment (field-independent basis, Debye):
    X=             -4.1564    Y=             -0.0315    Z=              0.0432  Tot=              4.1567
 Quadrupole moment (field-independent basis, Debye-Ang):
   XX=            -21.1308   YY=            -17.7043   ZZ=            -17.8761
   XY=             -0.0210   XZ=              0.2100   YZ=             -0.0660

 Normal termination of Gaussian 09 at Wed Aug 26 20:19:07 2020.
