 Gaussian 09, Revision D.01,
 Gaussian 09:  ES64L-G09RevD.01 24-Apr-2013

 --------------------
 #p B2PLYPD3/Def2QZVP
 --------------------

 ------------
 cyanomethane
 ------------
 Symbolic Z-matrix:
 Charge =  0 Multiplicity = 1

                         Standard orientation:
 ---------------------------------------------------------------------
 Center     Atomic      Atomic             Coordinates (Angstroms)
 Number     Number       Type             X           Y           Z
 ---------------------------------------------------------------------
      1          6           0        1.173336   -0.000029    0.009875
      2          6           0       -0.278530   -0.031862    0.015584
      3          7           0       -1.423773    0.019550   -0.017041
      4          1           0        1.613673    0.947763   -0.428769
      5          1           0        1.563969   -0.827625   -0.574328
      6          1           0        1.419937   -0.065638    0.969631
 ---------------------------------------------------------------------

 SCF Done:  E(RB2PLYPD3) =  -132.526549157     A.U. after   12 cycles
 E2(B2PLYPD3) =    -0.1796974598D+00 E(B2PLYPD3) =    -0.13270624661709D+03

 The electronic state is 1-A.
 Alpha  occ. eigenvalues --  -14.83931 -10.66408 -10.65924  -1.04441  -0.89988
 Alpha  occ. eigenvalues --   -0.59622  -0.56058  -0.52939  -0.44732  -0.39358
 Alpha  occ. eigenvalues --   -0.39103
 Alpha virt. eigenvalues --    0.03690   0.07516   0.09110   0.10200   0.11322
 Alpha virt. eigenvalues --    0.11683   0.15496   0.15708   0.17010   0.20035
 Alpha virt. eigenvalues --    0.20136   0.25524   0.32779   0.34171   0.35546

 Mulliken charges:
               1
     1  C   -0.086628
     2  C   -0.003339
     3  N   -0.203181
     4  H    0.092096
     5  H    0.095662
     6  H    0.105390
 Sum of Mulliken charges =   0.00000

 Dipole moment (field-independent basis, Debye):
    X=              4.1031    Y=             -0.0380    Z=              0.0449  Tot=              4.1035
 Quadrupole moment (field-independent basis, Debye-Ang):
   XX=            -20.9788   YY=            -17.6983   ZZ=            -17.6675
   XY=              0.1412   XZ=             -0.1887   YZ=              0.0275

 Normal termination of Gaussian 09 at Wed Aug 26 11:27:12 2020.
