 Gaussian 09, Revision D.01,
 Gaussian 09:  ES64L-G09RevD.01 24-Apr-2013

 --------------------
 #p B2PLYPD3/Def2QZVP
 --------------------

 ------------
 cyanomethane
 ------------
 Symbolic Z-matrix:
 Charge =  0 Multiplicity = 1

                         Standard orientation:
 ---------------------------------------------------------------------
 Center     Atomic      Atomic             Coordinates (Angstroms)
 Number     Number       Type             X           Y           Z
 ---------------------------------------------------------------------
      1          6           0        1.160151   -0.002057   -0.010551
      2          6           0       -0.265735   -0.013383    0.043017
      3          7           0       -1.431685    0.007404   -0.020337
      4          1           0        1.564528   -0.024496    0.996043
      5          1           0        1.547921    0.935280   -0.489333
      6          1           0        1.542849   -0.869969   -0.559146
 ---------------------------------------------------------------------

 SCF Done:  E(RB2PLYPD3) =  -132.532366132     A.U. after   11 cycles
 E2(B2PLYPD3) =    -0.1818489316D+00 E(B2PLYPD3) =    -0.13271421506381D+03

 The electronic state is 1-A.
 Alpha  occ. eigenvalues --  -14.84569 -10.67171 -10.66532  -1.03695  -0.89537
 Alpha  occ. eigenvalues --   -0.60329  -0.54120  -0.53405  -0.44912  -0.38640
 Alpha  occ. eigenvalues --   -0.38530
 Alpha virt. eigenvalues --    0.03627   0.07093   0.07596   0.10056   0.11416
 Alpha virt. eigenvalues --    0.11574   0.15576   0.15949   0.16719   0.20122
 Alpha virt. eigenvalues --    0.20193   0.25991   0.32903   0.34109   0.34600

 Mulliken charges:
               1
     1  C   -0.081956
     2  C    0.003372
     3  N   -0.212205
     4  H    0.094928
     5  H    0.096718
     6  H    0.099143
 Sum of Mulliken charges =   0.00000

 Dipole moment (field-independent basis, Debye):
    X=              4.1299    Y=             -0.0089    Z=              0.0386  Tot=              4.1301
 Quadrupole moment (field-independent basis, Debye-Ang):
   XX=            -20.9845   YY=            -17.7448   ZZ=            -17.8461
   XY=              0.0477   XZ=             -0.0621   YZ=              0.0285

 Normal termination of Gaussian 09 at Wed Aug 26 11:56:58 2020.
