 Gaussian 09, Revision D.01,
 Gaussian 09:  ES64L-G09RevD.01 24-Apr-2013

 --------------------
 #p B2PLYPD3/Def2QZVP
 --------------------

 ------------
 cyanomethane
 ------------
 Symbolic Z-matrix:
 Charge =  0 Multiplicity = 1

                         Standard orientation:
 ---------------------------------------------------------------------
 Center     Atomic      Atomic             Coordinates (Angstroms)
 Number     Number       Type             X           Y           Z
 ---------------------------------------------------------------------
      1          6           0       -1.178949   -0.007416   -0.000363
      2          6           0        0.280734    0.014929    0.002986
      3          7           0        1.428057   -0.006507   -0.003422
      4          1           0       -1.508620   -0.260857    0.976290
      5          1           0       -1.548529   -0.729137   -0.705437
      6          1           0       -1.549956    0.990466   -0.262632
 ---------------------------------------------------------------------

 SCF Done:  E(RB2PLYPD3) =  -132.535782723     A.U. after   11 cycles
 E2(B2PLYPD3) =    -0.1796876376D+00 E(B2PLYPD3) =    -0.13271547036063D+03

 The electronic state is 1-A.
 Alpha  occ. eigenvalues --  -14.83929 -10.66761 -10.65973  -1.04355  -0.89474
 Alpha  occ. eigenvalues --   -0.59513  -0.54554  -0.54035  -0.44700  -0.39268
 Alpha  occ. eigenvalues --   -0.39202
 Alpha virt. eigenvalues --    0.03830   0.08111   0.08399   0.10201   0.11475
 Alpha virt. eigenvalues --    0.11515   0.15421   0.16071   0.16506   0.20064
 Alpha virt. eigenvalues --    0.20076   0.25311   0.32850   0.34647   0.35007

 Mulliken charges:
               1
     1  C   -0.084692
     2  C   -0.004175
     3  N   -0.203342
     4  H    0.098320
     5  H    0.098121
     6  H    0.095768
 Sum of Mulliken charges =   0.00000

 Dipole moment (field-independent basis, Debye):
    X=             -4.1158    Y=              0.0041    Z=              0.0142  Tot=              4.1158
 Quadrupole moment (field-independent basis, Debye-Ang):
   XX=            -21.0408   YY=            -17.6706   ZZ=            -17.7084
   XY=              0.0391   XZ=              0.0308   YZ=              0.0057

 Normal termination of Gaussian 09 at Thu Aug 27 00:02:47 2020.
