 Gaussian 09, Revision D.01,
 Gaussian 09:  ES64L-G09RevD.01 24-Apr-2013

 --------------------
 #p B2PLYPD3/Def2QZVP
 --------------------

 ------------
 cyanomethane
 ------------
 Symbolic Z-matrix:
 Charge =  0 Multiplicity = 1

                         Standard orientation:
 ---------------------------------------------------------------------
 Center     Atomic      Atomic             Coordinates (Angstroms)
 Number     Number       Type             X           Y           Z
 ---------------------------------------------------------------------
      1          6           0       -1.173254    0.017933    0.006651
      2          6           0        0.275219   -0.012785   -0.076483
      3          7           0        1.416635   -0.000058    0.038097
      4          1           0       -1.496731   -0.084552    1.050367
      5          1           0       -1.570707   -0.913214   -0.505672
      6          1           0       -1.460798    0.967288   -0.392379
 ---------------------------------------------------------------------

 SCF Done:  E(RB2PLYPD3) =  -132.530572208     A.U. after   12 cycles
 E2(B2PLYPD3) =    -0.1801619564D+00 E(B2PLYPD3) =    -0.13271073416457D+03

 The electronic state is 1-A.
 Alpha  occ. eigenvalues --  -14.83857 -10.67361 -10.65812  -1.04385  -0.89190
 Alpha  occ. eigenvalues --   -0.58908  -0.55475  -0.52581  -0.44655  -0.39255
 Alpha  occ. eigenvalues --   -0.38862
 Alpha virt. eigenvalues --    0.03602   0.07400   0.08453   0.10081   0.11333
 Alpha virt. eigenvalues --    0.11798   0.15419   0.15891   0.16270   0.19989
 Alpha virt. eigenvalues --    0.20088   0.25780   0.32413   0.34059   0.35069

 Mulliken charges:
               1
     1  C   -0.099878
     2  C   -0.001633
     3  N   -0.203543
     4  H    0.099438
     5  H    0.097453
     6  H    0.108162
 Sum of Mulliken charges =   0.00000

 Dipole moment (field-independent basis, Debye):
    X=             -4.0535    Y=             -0.0073    Z=             -0.0118  Tot=              4.0536
 Quadrupole moment (field-independent basis, Debye-Ang):
   XX=            -21.3131   YY=            -17.4351   ZZ=            -17.8586
   XY=              0.1092   XZ=             -0.3021   YZ=             -0.0697

 Normal termination of Gaussian 09 at Wed Aug 26 23:05:00 2020.
