 Gaussian 09, Revision D.01,
 Gaussian 09:  ES64L-G09RevD.01 24-Apr-2013

 --------------------
 #p B2PLYPD3/Def2QZVP
 --------------------

 ------------
 cyanomethane
 ------------
 Symbolic Z-matrix:
 Charge =  0 Multiplicity = 1

                         Standard orientation:
 ---------------------------------------------------------------------
 Center     Atomic      Atomic             Coordinates (Angstroms)
 Number     Number       Type             X           Y           Z
 ---------------------------------------------------------------------
      1          6           0       -1.148536    0.009595   -0.008082
      2          6           0        0.283583   -0.048432   -0.014238
      3          7           0        1.422340    0.019936   -0.000582
      4          1           0       -1.582576    0.991988   -0.366773
      5          1           0       -1.469371   -0.084637    1.057349
      6          1           0       -1.714714   -0.813881   -0.552580
 ---------------------------------------------------------------------

 SCF Done:  E(RB2PLYPD3) =  -132.529578979     A.U. after   12 cycles
 E2(B2PLYPD3) =    -0.1800858018D+00 E(B2PLYPD3) =    -0.13270966478075D+03

 The electronic state is 1-A.
 Alpha  occ. eigenvalues --  -14.83964 -10.67938 -10.65973  -1.04858  -0.88669
 Alpha  occ. eigenvalues --   -0.60450  -0.52778  -0.52476  -0.44949  -0.39322
 Alpha  occ. eigenvalues --   -0.39117
 Alpha virt. eigenvalues --    0.03533   0.07026   0.07579   0.10142   0.11823
 Alpha virt. eigenvalues --    0.12024   0.15559   0.16103   0.17573   0.20031
 Alpha virt. eigenvalues --    0.20099   0.25947   0.32588   0.33762   0.34554

 Mulliken charges:
               1
     1  C   -0.085662
     2  C    0.004522
     3  N   -0.197427
     4  H    0.095067
     5  H    0.092622
     6  H    0.090878
 Sum of Mulliken charges =   0.00000

 Dipole moment (field-independent basis, Debye):
    X=             -4.0911    Y=             -0.0238    Z=              0.0437  Tot=              4.0914
 Quadrupole moment (field-independent basis, Debye-Ang):
   XX=            -20.7724   YY=            -17.7762   ZZ=            -17.9047
   XY=             -0.0618   XZ=              0.0502   YZ=             -0.0150

 Normal termination of Gaussian 09 at Wed Aug 26 18:38:21 2020.
