 Gaussian 09, Revision D.01,
 Gaussian 09:  ES64L-G09RevD.01 24-Apr-2013

 --------------------
 #p B2PLYPD3/Def2QZVP
 --------------------

 ------------
 cyanomethane
 ------------
 Symbolic Z-matrix:
 Charge =  0 Multiplicity = 1

                         Standard orientation:
 ---------------------------------------------------------------------
 Center     Atomic      Atomic             Coordinates (Angstroms)
 Number     Number       Type             X           Y           Z
 ---------------------------------------------------------------------
      1          6           0        1.169024   -0.005234    0.017421
      2          6           0       -0.269576   -0.006165   -0.027352
      3          7           0       -1.429573    0.003860    0.005206
      4          1           0        1.571081    0.985582   -0.311857
      5          1           0        1.602821   -0.761947   -0.634497
      6          1           0        1.436419   -0.182257    0.969498
 ---------------------------------------------------------------------

 SCF Done:  E(RB2PLYPD3) =  -132.529357152     A.U. after   12 cycles
 E2(B2PLYPD3) =    -0.1807773467D+00 E(B2PLYPD3) =    -0.13271013449857D+03

 The electronic state is 1-A.
 Alpha  occ. eigenvalues --  -14.84308 -10.66374 -10.66298  -1.03932  -0.90129
 Alpha  occ. eigenvalues --   -0.60243  -0.55617  -0.53394  -0.44808  -0.38967
 Alpha  occ. eigenvalues --   -0.38761
 Alpha virt. eigenvalues --    0.03824   0.07488   0.08329   0.10177   0.11370
 Alpha virt. eigenvalues --    0.11530   0.15541   0.16118   0.16490   0.20116
 Alpha virt. eigenvalues --    0.20154   0.25714   0.32644   0.34246   0.35554

 Mulliken charges:
               1
     1  C   -0.078818
     2  C    0.000185
     3  N   -0.210397
     4  H    0.092643
     5  H    0.093065
     6  H    0.103323
 Sum of Mulliken charges =   0.00000

 Dipole moment (field-independent basis, Debye):
    X=              4.1320    Y=             -0.0135    Z=              0.0124  Tot=              4.1321
 Quadrupole moment (field-independent basis, Debye-Ang):
   XX=            -20.9568   YY=            -17.7214   ZZ=            -17.7388
   XY=              0.0056   XZ=             -0.0575   YZ=             -0.0174

 Normal termination of Gaussian 09 at Wed Aug 26 16:03:28 2020.
