 Gaussian 09, Revision D.01,
 Gaussian 09:  ES64L-G09RevD.01 24-Apr-2013

 --------------------
 #p B2PLYPD3/Def2QZVP
 --------------------

 ------------
 cyanomethane
 ------------
 Symbolic Z-matrix:
 Charge =  0 Multiplicity = 1

                         Standard orientation:
 ---------------------------------------------------------------------
 Center     Atomic      Atomic             Coordinates (Angstroms)
 Number     Number       Type             X           Y           Z
 ---------------------------------------------------------------------
      1          6           0        1.169751   -0.012265    0.002686
      2          6           0       -0.275227    0.022427    0.001231
      3          7           0       -1.434156   -0.009255   -0.000406
      4          1           0        1.563116   -0.102356    0.996440
      5          1           0        1.568769    0.929943   -0.419604
      6          1           0        1.540066   -0.823777   -0.597499
 ---------------------------------------------------------------------

 SCF Done:  E(RB2PLYPD3) =  -132.534725375     A.U. after   11 cycles
 E2(B2PLYPD3) =    -0.1808512959D+00 E(B2PLYPD3) =    -0.13271557667063D+03

 The electronic state is 1-A.
 Alpha  occ. eigenvalues --  -14.84360 -10.66858 -10.66389  -1.03983  -0.89510
 Alpha  occ. eigenvalues --   -0.60309  -0.54371  -0.53496  -0.44868  -0.38998
 Alpha  occ. eigenvalues --   -0.38853
 Alpha virt. eigenvalues --    0.03783   0.07678   0.07831   0.10135   0.11418
 Alpha virt. eigenvalues --    0.11525   0.15522   0.16202   0.16669   0.20112
 Alpha virt. eigenvalues --    0.20120   0.25608   0.32789   0.34419   0.35049

 Mulliken charges:
               1
     1  C   -0.076170
     2  C    0.000827
     3  N   -0.208444
     4  H    0.095469
     5  H    0.091379
     6  H    0.096939
 Sum of Mulliken charges =   0.00000

 Dipole moment (field-independent basis, Debye):
    X=              4.1359    Y=              0.0119    Z=              0.0026  Tot=              4.1359
 Quadrupole moment (field-independent basis, Debye-Ang):
   XX=            -20.9034   YY=            -17.7807   ZZ=            -17.7774
   XY=             -0.0289   XZ=              0.0113   YZ=              0.0280

 Normal termination of Gaussian 09 at Thu Aug 27 00:05:11 2020.
