 Gaussian 09, Revision D.01,
 Gaussian 09:  ES64L-G09RevD.01 24-Apr-2013

 --------------------
 #p B2PLYPD3/Def2QZVP
 --------------------

 ------------
 cyanomethane
 ------------
 Symbolic Z-matrix:
 Charge =  0 Multiplicity = 1

                         Standard orientation:
 ---------------------------------------------------------------------
 Center     Atomic      Atomic             Coordinates (Angstroms)
 Number     Number       Type             X           Y           Z
 ---------------------------------------------------------------------
      1          6           0        1.194968   -0.019928   -0.029114
      2          6           0       -0.272201   -0.009456    0.076217
      3          7           0       -1.443113    0.007955   -0.030840
      4          1           0        1.602653   -0.030660    0.976134
      5          1           0        1.498622    1.021767   -0.462577
      6          1           0        1.463912   -0.870486   -0.580291
 ---------------------------------------------------------------------

 SCF Done:  E(RB2PLYPD3) =  -132.525014207     A.U. after   12 cycles
 E2(B2PLYPD3) =    -0.1827054196D+00 E(B2PLYPD3) =    -0.13270771962709D+03

 The electronic state is 1-A.
 Alpha  occ. eigenvalues --  -14.84705 -10.67721 -10.66798  -1.03199  -0.89006
 Alpha  occ. eigenvalues --   -0.58803  -0.55732  -0.52390  -0.44712  -0.38688
 Alpha  occ. eigenvalues --   -0.38264
 Alpha virt. eigenvalues --    0.03354   0.07310   0.07886   0.10127   0.10950
 Alpha virt. eigenvalues --    0.11260   0.14754   0.15636   0.16448   0.20085
 Alpha virt. eigenvalues --    0.20192   0.25418   0.32179   0.32878   0.35342

 Mulliken charges:
               1
     1  C   -0.100198
     2  C    0.003488
     3  N   -0.216980
     4  H    0.097135
     5  H    0.102507
     6  H    0.114048
 Sum of Mulliken charges =   0.00000

 Dipole moment (field-independent basis, Debye):
    X=              4.1266    Y=             -0.0066    Z=              0.0736  Tot=              4.1273
 Quadrupole moment (field-independent basis, Debye-Ang):
   XX=            -21.3137   YY=            -17.5588   ZZ=            -17.9780
   XY=              0.0759   XZ=              0.0435   YZ=              0.1162

 Normal termination of Gaussian 09 at Wed Aug 26 18:50:11 2020.
