 Gaussian 09, Revision D.01,
 Gaussian 09:  ES64L-G09RevD.01 24-Apr-2013

 --------------------
 #p B2PLYPD3/Def2QZVP
 --------------------

 ------------
 cyanomethane
 ------------
 Symbolic Z-matrix:
 Charge =  0 Multiplicity = 1

                         Standard orientation:
 ---------------------------------------------------------------------
 Center     Atomic      Atomic             Coordinates (Angstroms)
 Number     Number       Type             X           Y           Z
 ---------------------------------------------------------------------
      1          6           0        1.179635    0.000282   -0.034685
      2          6           0       -0.299499   -0.083942    0.006740
      3          7           0       -1.424496    0.040588    0.002904
      4          1           0        1.596660    0.194225    0.952598
      5          1           0        1.491280    0.862127   -0.504288
      6          1           0        1.602715   -0.838515   -0.300973
 ---------------------------------------------------------------------

 SCF Done:  E(RB2PLYPD3) =  -132.519486037     A.U. after   12 cycles
 E2(B2PLYPD3) =    -0.1782459383D+00 E(B2PLYPD3) =    -0.13269773197538D+03

 The electronic state is 1-A.
 Alpha  occ. eigenvalues --  -14.83683 -10.65741 -10.65421  -1.05092  -0.90145
 Alpha  occ. eigenvalues --   -0.60557  -0.57307  -0.51951  -0.44814  -0.40206
 Alpha  occ. eigenvalues --   -0.39500
 Alpha virt. eigenvalues --    0.03764   0.08273   0.09426   0.10226   0.11022
 Alpha virt. eigenvalues --    0.12037   0.15442   0.16469   0.17517   0.19721
 Alpha virt. eigenvalues --    0.20140   0.25357   0.33076   0.34338   0.36489

 Mulliken charges:
               1
     1  C   -0.057349
     2  C    0.000065
     3  N   -0.193892
     4  H    0.068472
     5  H    0.090477
     6  H    0.092226
 Sum of Mulliken charges =   0.00000

 Dipole moment (field-independent basis, Debye):
    X=              4.1129    Y=             -0.0321    Z=              0.0527  Tot=              4.1133
 Quadrupole moment (field-independent basis, Debye-Ang):
   XX=            -20.5495   YY=            -17.4067   ZZ=            -18.0138
   XY=              0.2429   XZ=              0.2059   YZ=              0.0088

 Normal termination of Gaussian 09 at Wed Aug 26 23:51:02 2020.
