 Gaussian 09, Revision D.01,
 Gaussian 09:  ES64L-G09RevD.01 24-Apr-2013

 --------------------
 #p B2PLYPD3/Def2QZVP
 --------------------

 ------------
 cyanomethane
 ------------
 Symbolic Z-matrix:
 Charge =  0 Multiplicity = 1

                         Standard orientation:
 ---------------------------------------------------------------------
 Center     Atomic      Atomic             Coordinates (Angstroms)
 Number     Number       Type             X           Y           Z
 ---------------------------------------------------------------------
      1          6           0       -1.163085    0.050791    0.029356
      2          6           0        0.290434   -0.048969   -0.052704
      3          7           0        1.419448    0.008741    0.019728
      4          1           0       -1.445416    1.002561   -0.305124
      5          1           0       -1.529896   -0.265029    0.971176
      6          1           0       -1.724918   -0.809649   -0.664062
 ---------------------------------------------------------------------

 SCF Done:  E(RB2PLYPD3) =  -132.519446454     A.U. after   12 cycles
 E2(B2PLYPD3) =    -0.1793487105D+00 E(B2PLYPD3) =    -0.13269879516477D+03

 The electronic state is 1-A.
 Alpha  occ. eigenvalues --  -14.83697 -10.67762 -10.65682  -1.05119  -0.88750
 Alpha  occ. eigenvalues --   -0.59610  -0.56278  -0.50240  -0.44824  -0.39991
 Alpha  occ. eigenvalues --   -0.38967
 Alpha virt. eigenvalues --    0.03476   0.06686   0.08626   0.10155   0.11356
 Alpha virt. eigenvalues --    0.12251   0.15219   0.16204   0.17266   0.19819
 Alpha virt. eigenvalues --    0.20027   0.25776   0.30476   0.34386   0.35989

 Mulliken charges:
               1
     1  C   -0.091183
     2  C    0.000961
     3  N   -0.193535
     4  H    0.110023
     5  H    0.100806
     6  H    0.072928
 Sum of Mulliken charges =   0.00000

 Dipole moment (field-independent basis, Debye):
    X=             -4.0404    Y=             -0.0135    Z=              0.0249  Tot=              4.0405
 Quadrupole moment (field-independent basis, Debye-Ang):
   XX=            -20.9914   YY=            -17.5571   ZZ=            -17.9620
   XY=              0.1612   XZ=             -0.1698   YZ=             -0.2502

 Normal termination of Gaussian 09 at Wed Aug 26 18:50:42 2020.
