 Gaussian 09, Revision D.01,
 Gaussian 09:  ES64L-G09RevD.01 24-Apr-2013

 --------------------
 #p B2PLYPD3/Def2QZVP
 --------------------

 ------------
 cyanomethane
 ------------
 Symbolic Z-matrix:
 Charge =  0 Multiplicity = 1

                         Standard orientation:
 ---------------------------------------------------------------------
 Center     Atomic      Atomic             Coordinates (Angstroms)
 Number     Number       Type             X           Y           Z
 ---------------------------------------------------------------------
      1          6           0        1.182769   -0.012203    0.006384
      2          6           0       -0.274148    0.019452   -0.006673
      3          7           0       -1.438199   -0.008655    0.002707
      4          1           0        1.542176    1.003242   -0.144976
      5          1           0        1.537777   -0.614907   -0.797365
      6          1           0        1.535707   -0.371246    0.925127
 ---------------------------------------------------------------------

 SCF Done:  E(RB2PLYPD3) =  -132.533610409     A.U. after   11 cycles
 E2(B2PLYPD3) =    -0.1810407831D+00 E(B2PLYPD3) =    -0.13271465119228D+03

 The electronic state is 1-A.
 Alpha  occ. eigenvalues --  -14.84432 -10.66520 -10.66462  -1.03708  -0.89806
 Alpha  occ. eigenvalues --   -0.59925  -0.55052  -0.54046  -0.44787  -0.38934
 Alpha  occ. eigenvalues --   -0.38774
 Alpha virt. eigenvalues --    0.03854   0.07971   0.08063   0.10157   0.11233
 Alpha virt. eigenvalues --    0.11356   0.15423   0.15952   0.16518   0.20136
 Alpha virt. eigenvalues --    0.20155   0.25360   0.32728   0.34558   0.35323

 Mulliken charges:
               1
     1  C   -0.077247
     2  C   -0.000689
     3  N   -0.211787
     4  H    0.093580
     5  H    0.097154
     6  H    0.098988
 Sum of Mulliken charges =   0.00000

 Dipole moment (field-independent basis, Debye):
    X=              4.1483    Y=              0.0141    Z=             -0.0056  Tot=              4.1484
 Quadrupole moment (field-independent basis, Debye-Ang):
   XX=            -20.9895   YY=            -17.7734   ZZ=            -17.7143
   XY=             -0.0331   XZ=              0.0062   YZ=             -0.0041

 Normal termination of Gaussian 09 at Wed Aug 26 10:15:20 2020.
