 Gaussian 09, Revision D.01,
 Gaussian 09:  ES64L-G09RevD.01 24-Apr-2013

 --------------------
 #p B2PLYPD3/Def2QZVP
 --------------------

 ------------
 cyanomethane
 ------------
 Symbolic Z-matrix:
 Charge =  0 Multiplicity = 1

                         Standard orientation:
 ---------------------------------------------------------------------
 Center     Atomic      Atomic             Coordinates (Angstroms)
 Number     Number       Type             X           Y           Z
 ---------------------------------------------------------------------
      1          6           0       -1.182086    0.003816   -0.000715
      2          6           0        0.273716   -0.019364   -0.007512
      3          7           0        1.436597    0.009278    0.003275
      4          1           0       -1.525709   -0.058881    0.997591
      5          1           0       -1.545925   -0.825051   -0.543152
      6          1           0       -1.534325    0.912280   -0.428002
 ---------------------------------------------------------------------

 SCF Done:  E(RB2PLYPD3) =  -132.533712927     A.U. after   11 cycles
 E2(B2PLYPD3) =    -0.1808299443D+00 E(B2PLYPD3) =    -0.13271454287172D+03

 The electronic state is 1-A.
 Alpha  occ. eigenvalues --  -14.84388 -10.66448 -10.66207  -1.03754  -0.90011
 Alpha  occ. eigenvalues --   -0.59983  -0.54926  -0.54587  -0.44777  -0.38918
 Alpha  occ. eigenvalues --   -0.38869
 Alpha virt. eigenvalues --    0.03888   0.08048   0.08235   0.10179   0.11230
 Alpha virt. eigenvalues --    0.11346   0.15453   0.16098   0.16382   0.20119
 Alpha virt. eigenvalues --    0.20168   0.25371   0.32854   0.34986   0.35164

 Mulliken charges:
               1
     1  C   -0.073974
     2  C   -0.001390
     3  N   -0.211517
     4  H    0.094964
     5  H    0.095585
     6  H    0.096333
 Sum of Mulliken charges =   0.00000

 Dipole moment (field-independent basis, Debye):
    X=             -4.1500    Y=             -0.0131    Z=              0.0044  Tot=              4.1500
 Quadrupole moment (field-independent basis, Debye-Ang):
   XX=            -20.9605   YY=            -17.6949   ZZ=            -17.7624
   XY=             -0.0394   XZ=             -0.0264   YZ=              0.0037

 Normal termination of Gaussian 09 at Wed Aug 26 20:39:15 2020.
