 Gaussian 09, Revision D.01,
 Gaussian 09:  ES64L-G09RevD.01 24-Apr-2013

 --------------------
 #p B2PLYPD3/Def2QZVP
 --------------------

 ------------
 cyanomethane
 ------------
 Symbolic Z-matrix:
 Charge =  0 Multiplicity = 1

                         Standard orientation:
 ---------------------------------------------------------------------
 Center     Atomic      Atomic             Coordinates (Angstroms)
 Number     Number       Type             X           Y           Z
 ---------------------------------------------------------------------
      1          6           0       -1.182929    0.049528    0.004512
      2          6           0        0.269245   -0.052424    0.022644
      3          7           0        1.443984    0.020819   -0.017335
      4          1           0       -1.475743   -0.291805    0.934403
      5          1           0       -1.605059   -0.793527   -0.694075
      6          1           0       -1.544980    0.956977   -0.281925
 ---------------------------------------------------------------------

 SCF Done:  E(RB2PLYPD3) =  -132.519739053     A.U. after   13 cycles
 E2(B2PLYPD3) =    -0.1826454798D+00 E(B2PLYPD3) =    -0.13270238453285D+03

 The electronic state is 1-A.
 Alpha  occ. eigenvalues --  -14.84863 -10.66937 -10.66740  -1.03258  -0.89886
 Alpha  occ. eigenvalues --   -0.60320  -0.56673  -0.51955  -0.44889  -0.38797
 Alpha  occ. eigenvalues --   -0.38157
 Alpha virt. eigenvalues --    0.03588   0.06840   0.08192   0.09911   0.11034
 Alpha virt. eigenvalues --    0.11536   0.15213   0.15438   0.17272   0.20106
 Alpha virt. eigenvalues --    0.20313   0.25700   0.31675   0.33767   0.35945

 Mulliken charges:
               1
     1  C   -0.081197
     2  C    0.005954
     3  N   -0.217456
     4  H    0.099872
     5  H    0.084350
     6  H    0.108478
 Sum of Mulliken charges =   0.00000

 Dipole moment (field-independent basis, Debye):
    X=             -4.1445    Y=             -0.0472    Z=              0.0590  Tot=              4.1451
 Quadrupole moment (field-independent basis, Debye-Ang):
   XX=            -21.0197   YY=            -17.6324   ZZ=            -17.9901
   XY=             -0.0055   XZ=              0.0951   YZ=             -0.1541

 Normal termination of Gaussian 09 at Wed Aug 26 22:06:42 2020.
