 Gaussian 09, Revision D.01,
 Gaussian 09:  ES64L-G09RevD.01 24-Apr-2013

 --------------------
 #p B2PLYPD3/Def2QZVP
 --------------------

 ------------
 cyanomethane
 ------------
 Symbolic Z-matrix:
 Charge =  0 Multiplicity = 1

                         Standard orientation:
 ---------------------------------------------------------------------
 Center     Atomic      Atomic             Coordinates (Angstroms)
 Number     Number       Type             X           Y           Z
 ---------------------------------------------------------------------
      1          6           0        1.177294   -0.006922   -0.006921
      2          6           0       -0.274466    0.011615    0.015137
      3          7           0       -1.436348   -0.004754   -0.005073
      4          1           0        1.573823   -0.132289    0.990572
      5          1           0        1.542049    0.945526   -0.388963
      6          1           0        1.521596   -0.808114   -0.615390
 ---------------------------------------------------------------------

 SCF Done:  E(RB2PLYPD3) =  -132.534746152     A.U. after   11 cycles
 E2(B2PLYPD3) =    -0.1809729862D+00 E(B2PLYPD3) =    -0.13271571913860D+03

 The electronic state is 1-A.
 Alpha  occ. eigenvalues --  -14.84389 -10.66743 -10.66441  -1.03822  -0.89610
 Alpha  occ. eigenvalues --   -0.59992  -0.54641  -0.53842  -0.44812  -0.38925
 Alpha  occ. eigenvalues --   -0.38829
 Alpha virt. eigenvalues --    0.03812   0.07840   0.07933   0.10164   0.11336
 Alpha virt. eigenvalues --    0.11412   0.15437   0.16179   0.16421   0.20117
 Alpha virt. eigenvalues --    0.20145   0.25457   0.32760   0.34561   0.35040

 Mulliken charges:
               1
     1  C   -0.078572
     2  C   -0.000320
     3  N   -0.210315
     4  H    0.094085
     5  H    0.095882
     6  H    0.099240
 Sum of Mulliken charges =   0.00000

 Dipole moment (field-independent basis, Debye):
    X=              4.1425    Y=              0.0045    Z=              0.0117  Tot=              4.1426
 Quadrupole moment (field-independent basis, Debye-Ang):
   XX=            -20.9738   YY=            -17.7129   ZZ=            -17.8027
   XY=             -0.0178   XZ=              0.0238   YZ=              0.0243

 Normal termination of Gaussian 09 at Wed Aug 26 16:05:15 2020.
