 Gaussian 09, Revision D.01,
 Gaussian 09:  ES64L-G09RevD.01 24-Apr-2013

 --------------------
 #p B2PLYPD3/Def2QZVP
 --------------------

 ------------
 cyanomethane
 ------------
 Symbolic Z-matrix:
 Charge =  0 Multiplicity = 1

                         Standard orientation:
 ---------------------------------------------------------------------
 Center     Atomic      Atomic             Coordinates (Angstroms)
 Number     Number       Type             X           Y           Z
 ---------------------------------------------------------------------
      1          6           0       -1.179782    0.010023   -0.014070
      2          6           0        0.283312   -0.008949   -0.007541
      3          7           0        1.428728    0.000592    0.008216
      4          1           0       -1.499786    1.042284    0.018424
      5          1           0       -1.593838   -0.521053    0.907963
      6          1           0       -1.528652   -0.531821   -0.854237
 ---------------------------------------------------------------------

 SCF Done:  E(RB2PLYPD3) =  -132.533415473     A.U. after   11 cycles
 E2(B2PLYPD3) =    -0.1797698978D+00 E(B2PLYPD3) =    -0.13271318537045D+03

 The electronic state is 1-A.
 Alpha  occ. eigenvalues --  -14.83887 -10.67294 -10.65945  -1.04431  -0.89081
 Alpha  occ. eigenvalues --   -0.59230  -0.55234  -0.52627  -0.44693  -0.39413
 Alpha  occ. eigenvalues --   -0.39086
 Alpha virt. eigenvalues --    0.03700   0.07681   0.08517   0.10215   0.11344
 Alpha virt. eigenvalues --    0.11751   0.15310   0.16235   0.16362   0.19995
 Alpha virt. eigenvalues --    0.20105   0.25230   0.32519   0.33925   0.35267

 Mulliken charges:
               1
     1  C   -0.090968
     2  C   -0.004167
     3  N   -0.201728
     4  H    0.103501
     5  H    0.091306
     6  H    0.102057
 Sum of Mulliken charges =   0.00000

 Dipole moment (field-independent basis, Debye):
    X=             -4.1067    Y=             -0.0083    Z=             -0.0142  Tot=              4.1067
 Quadrupole moment (field-independent basis, Debye-Ang):
   XX=            -21.0978   YY=            -17.6071   ZZ=            -17.8034
   XY=              0.0750   XZ=             -0.0962   YZ=              0.0781

 Normal termination of Gaussian 09 at Wed Aug 26 15:19:55 2020.
