 Gaussian 09, Revision D.01,
 Gaussian 09:  ES64L-G09RevD.01 24-Apr-2013

 --------------------
 #p B2PLYPD3/Def2QZVP
 --------------------

 ------------
 cyanomethane
 ------------
 Symbolic Z-matrix:
 Charge =  0 Multiplicity = 1

                         Standard orientation:
 ---------------------------------------------------------------------
 Center     Atomic      Atomic             Coordinates (Angstroms)
 Number     Number       Type             X           Y           Z
 ---------------------------------------------------------------------
      1          6           0       -1.179971    0.006511   -0.006078
      2          6           0        0.275957    0.009505   -0.006377
      3          7           0        1.430855   -0.008837    0.005749
      4          1           0       -1.482722    0.983330   -0.247031
      5          1           0       -1.565589   -0.280872    0.990007
      6          1           0       -1.543595   -0.736688   -0.708488
 ---------------------------------------------------------------------

 SCF Done:  E(RB2PLYPD3) =  -132.534124702     A.U. after   12 cycles
 E2(B2PLYPD3) =    -0.1803981424D+00 E(B2PLYPD3) =    -0.13271452284477D+03

 The electronic state is 1-A.
 Alpha  occ. eigenvalues --  -14.84121 -10.66861 -10.66166  -1.04051  -0.89549
 Alpha  occ. eigenvalues --   -0.59430  -0.55337  -0.53384  -0.44709  -0.39106
 Alpha  occ. eigenvalues --   -0.38909
 Alpha virt. eigenvalues --    0.03785   0.07738   0.08443   0.10186   0.11264
 Alpha virt. eigenvalues --    0.11580   0.15371   0.16044   0.16345   0.20062
 Alpha virt. eigenvalues --    0.20156   0.25345   0.32765   0.34264   0.35175

 Mulliken charges:
               1
     1  C   -0.086814
     2  C   -0.003014
     3  N   -0.207415
     4  H    0.103391
     5  H    0.095032
     6  H    0.098820
 Sum of Mulliken charges =   0.00000

 Dipole moment (field-independent basis, Debye):
    X=             -4.1234    Y=              0.0075    Z=             -0.0039  Tot=              4.1234
 Quadrupole moment (field-independent basis, Debye-Ang):
   XX=            -21.0979   YY=            -17.6155   ZZ=            -17.7938
   XY=              0.1201   XZ=             -0.0763   YZ=             -0.0048

 Normal termination of Gaussian 09 at Wed Aug 26 23:55:36 2020.
