 Gaussian 09, Revision D.01,
 Gaussian 09:  ES64L-G09RevD.01 24-Apr-2013

 --------------------
 #p B2PLYPD3/Def2QZVP
 --------------------

 ------------
 cyanomethane
 ------------
 Symbolic Z-matrix:
 Charge =  0 Multiplicity = 1

                         Standard orientation:
 ---------------------------------------------------------------------
 Center     Atomic      Atomic             Coordinates (Angstroms)
 Number     Number       Type             X           Y           Z
 ---------------------------------------------------------------------
      1          6           0       -1.181212   -0.011215    0.006229
      2          6           0        0.280934    0.010462   -0.015716
      3          7           0        1.430978   -0.003168    0.007601
      4          1           0       -1.535989   -0.140133    1.003411
      5          1           0       -1.526194   -0.804194   -0.626917
      6          1           0       -1.552995    0.971020   -0.372781
 ---------------------------------------------------------------------

 SCF Done:  E(RB2PLYPD3) =  -132.535098171     A.U. after   11 cycles
 E2(B2PLYPD3) =    -0.1800324906D+00 E(B2PLYPD3) =    -0.13271513066170D+03

 The electronic state is 1-A.
 Alpha  occ. eigenvalues --  -14.84022 -10.67031 -10.66082  -1.04240  -0.89274
 Alpha  occ. eigenvalues --   -0.59425  -0.54701  -0.53541  -0.44712  -0.39242
 Alpha  occ. eigenvalues --   -0.39078
 Alpha virt. eigenvalues --    0.03783   0.07963   0.08276   0.10187   0.11383
 Alpha virt. eigenvalues --    0.11551   0.15372   0.16076   0.16439   0.20059
 Alpha virt. eigenvalues --    0.20092   0.25270   0.32663   0.34302   0.35104

 Mulliken charges:
               1
     1  C   -0.087553
     2  C   -0.003270
     3  N   -0.204514
     4  H    0.099761
     5  H    0.100589
     6  H    0.094986
 Sum of Mulliken charges =   0.00000

 Dipole moment (field-independent basis, Debye):
    X=             -4.1166    Y=              0.0015    Z=             -0.0027  Tot=              4.1166
 Quadrupole moment (field-independent basis, Debye-Ang):
   XX=            -21.0769   YY=            -17.6913   ZZ=            -17.7240
   XY=              0.0020   XZ=             -0.0620   YZ=              0.0341

 Normal termination of Gaussian 09 at Thu Aug 27 00:04:38 2020.
