 Gaussian 09, Revision D.01,
 Gaussian 09:  ES64L-G09RevD.01 24-Apr-2013

 --------------------
 #p B2PLYPD3/Def2QZVP
 --------------------

 ------------
 cyanomethane
 ------------
 Symbolic Z-matrix:
 Charge =  0 Multiplicity = 1

                         Standard orientation:
 ---------------------------------------------------------------------
 Center     Atomic      Atomic             Coordinates (Angstroms)
 Number     Number       Type             X           Y           Z
 ---------------------------------------------------------------------
      1          6           0       -1.181185   -0.013636    0.009232
      2          6           0        0.286645    0.039641   -0.011181
      3          7           0        1.419918   -0.014439    0.002132
      4          1           0       -1.465869   -0.346279    0.944998
      5          1           0       -1.508901   -0.717919   -0.745648
      6          1           0       -1.597420    1.009234   -0.202581
 ---------------------------------------------------------------------

 SCF Done:  E(RB2PLYPD3) =  -132.533256660     A.U. after   12 cycles
 E2(B2PLYPD3) =    -0.1786651352D+00 E(B2PLYPD3) =    -0.13271192179483D+03

 The electronic state is 1-A.
 Alpha  occ. eigenvalues --  -14.83517 -10.66883 -10.65549  -1.04836  -0.89299
 Alpha  occ. eigenvalues --   -0.58969  -0.54912  -0.53666  -0.44593  -0.39613
 Alpha  occ. eigenvalues --   -0.39496
 Alpha virt. eigenvalues --    0.03811   0.08180   0.08796   0.10220   0.11587
 Alpha virt. eigenvalues --    0.11658   0.15380   0.16183   0.16317   0.19963
 Alpha virt. eigenvalues --    0.20043   0.25249   0.32590   0.34517   0.35204

 Mulliken charges:
               1
     1  C   -0.093465
     2  C   -0.007821
     3  N   -0.196312
     4  H    0.102960
     5  H    0.098982
     6  H    0.095655
 Sum of Mulliken charges =   0.00000

 Dipole moment (field-independent basis, Debye):
    X=             -4.0813    Y=             -0.0015    Z=              0.0090  Tot=              4.0813
 Quadrupole moment (field-independent basis, Debye-Ang):
   XX=            -21.1333   YY=            -17.5708   ZZ=            -17.6816
   XY=              0.0540   XZ=              0.0078   YZ=             -0.0116

 Normal termination of Gaussian 09 at Wed Aug 26 12:12:36 2020.
