 Gaussian 09, Revision D.01,
 Gaussian 09:  ES64L-G09RevD.01 24-Apr-2013

 --------------------
 #p B2PLYPD3/Def2QZVP
 --------------------

 ------------
 cyanomethane
 ------------
 Symbolic Z-matrix:
 Charge =  0 Multiplicity = 1

                         Standard orientation:
 ---------------------------------------------------------------------
 Center     Atomic      Atomic             Coordinates (Angstroms)
 Number     Number       Type             X           Y           Z
 ---------------------------------------------------------------------
      1          6           0       -1.174878   -0.032737    0.005264
      2          6           0        0.306377    0.046119    0.007207
      3          7           0        1.437688   -0.001504   -0.001283
      4          1           0       -1.565310   -0.434744    0.925045
      5          1           0       -1.426632   -0.694872   -0.827127
      6          1           0       -1.860866    1.059855   -0.163762
 ---------------------------------------------------------------------

 SCF Done:  E(RB2PLYPD3) =  -132.511902262     A.U. after   12 cycles
 E2(B2PLYPD3) =    -0.1799169165D+00 E(B2PLYPD3) =    -0.13269181917808D+03

 The electronic state is 1-A.
 Alpha  occ. eigenvalues --  -14.83873 -10.69135 -10.66058  -1.05199  -0.87568
 Alpha  occ. eigenvalues --   -0.59227  -0.54011  -0.49771  -0.44922  -0.39917
 Alpha  occ. eigenvalues --   -0.39338
 Alpha virt. eigenvalues --    0.02912   0.06131   0.08430   0.10325   0.11592
 Alpha virt. eigenvalues --    0.12105   0.15064   0.16303   0.17421   0.19886
 Alpha virt. eigenvalues --    0.20076   0.24917   0.29441   0.33886   0.34757

 Mulliken charges:
               1
     1  C   -0.103388
     2  C    0.002378
     3  N   -0.190085
     4  H    0.102962
     5  H    0.104973
     6  H    0.083161
 Sum of Mulliken charges =   0.00000

 Dipole moment (field-independent basis, Debye):
    X=             -4.0612    Y=             -0.1018    Z=              0.0206  Tot=              4.0625
 Quadrupole moment (field-independent basis, Debye-Ang):
   XX=            -20.8610   YY=            -17.9150   ZZ=            -17.8772
   XY=             -0.0774   XZ=             -0.0950   YZ=              0.0537

 Normal termination of Gaussian 09 at Wed Aug 26 22:03:02 2020.
