 Gaussian 09, Revision D.01,
 Gaussian 09:  ES64L-G09RevD.01 24-Apr-2013

 --------------------
 #p B2PLYPD3/Def2QZVP
 --------------------

 ------------
 cyanomethane
 ------------
 Symbolic Z-matrix:
 Charge =  0 Multiplicity = 1

                         Standard orientation:
 ---------------------------------------------------------------------
 Center     Atomic      Atomic             Coordinates (Angstroms)
 Number     Number       Type             X           Y           Z
 ---------------------------------------------------------------------
      1          6           0        1.169568   -0.011684   -0.003493
      2          6           0       -0.272556   -0.013649   -0.008340
      3          7           0       -1.433701    0.010196    0.007601
      4          1           0        1.511277   -0.865243   -0.545412
      5          1           0        1.588525   -0.008743    1.049479
      6          1           0        1.554030    0.954615   -0.486278
 ---------------------------------------------------------------------

 SCF Done:  E(RB2PLYPD3) =  -132.530768021     A.U. after   11 cycles
 E2(B2PLYPD3) =    -0.1814568743D+00 E(B2PLYPD3) =    -0.13271222489562D+03

 The electronic state is 1-A.
 Alpha  occ. eigenvalues --  -14.84378 -10.67773 -10.66407  -1.03877  -0.89023
 Alpha  occ. eigenvalues --   -0.59628  -0.54581  -0.52394  -0.44832  -0.38896
 Alpha  occ. eigenvalues --   -0.38597
 Alpha virt. eigenvalues --    0.03562   0.06935   0.07873   0.10122   0.11308
 Alpha virt. eigenvalues --    0.11729   0.15412   0.16095   0.16426   0.20062
 Alpha virt. eigenvalues --    0.20190   0.25589   0.32475   0.33476   0.34761

 Mulliken charges:
               1
     1  C   -0.092732
     2  C    0.001378
     3  N   -0.208933
     4  H    0.105610
     5  H    0.097800
     6  H    0.096878
 Sum of Mulliken charges =   0.00000

 Dipole moment (field-independent basis, Debye):
    X=              4.1184    Y=             -0.0123    Z=             -0.0093  Tot=              4.1184
 Quadrupole moment (field-independent basis, Debye-Ang):
   XX=            -21.1109   YY=            -17.7407   ZZ=            -17.8229
   XY=              0.0971   XZ=              0.0965   YZ=              0.0728

 Normal termination of Gaussian 09 at Wed Aug 26 22:36:10 2020.
