 Gaussian 09, Revision D.01,
 Gaussian 09:  ES64L-G09RevD.01 24-Apr-2013

 --------------------
 #p B2PLYPD3/Def2QZVP
 --------------------

 ------------
 cyanomethane
 ------------
 Symbolic Z-matrix:
 Charge =  0 Multiplicity = 1

                         Standard orientation:
 ---------------------------------------------------------------------
 Center     Atomic      Atomic             Coordinates (Angstroms)
 Number     Number       Type             X           Y           Z
 ---------------------------------------------------------------------
      1          6           0       -1.177943    0.015524   -0.001444
      2          6           0        0.307010   -0.005760   -0.059006
      3          7           0        1.438299   -0.005344    0.031922
      4          1           0       -1.531552    1.122217    0.061853
      5          1           0       -1.655512   -0.586454    0.915675
      6          1           0       -1.655432   -0.556943   -0.838287
 ---------------------------------------------------------------------

 SCF Done:  E(RB2PLYPD3) =  -132.520552714     A.U. after   12 cycles
 E2(B2PLYPD3) =    -0.1801483234D+00 E(B2PLYPD3) =    -0.13270070103761D+03

 The electronic state is 1-A.
 Alpha  occ. eigenvalues --  -14.83921 -10.69384 -10.66081  -1.05030  -0.87003
 Alpha  occ. eigenvalues --   -0.59192  -0.53052  -0.50290  -0.44906  -0.39799
 Alpha  occ. eigenvalues --   -0.39282
 Alpha virt. eigenvalues --    0.03105   0.06743   0.07813   0.10204   0.11484
 Alpha virt. eigenvalues --    0.12008   0.15103   0.16505   0.17141   0.19802
 Alpha virt. eigenvalues --    0.20067   0.25085   0.31891   0.32675   0.34050

 Mulliken charges:
               1
     1  C   -0.099937
     2  C    0.002715
     3  N   -0.190980
     4  H    0.102632
     5  H    0.089814
     6  H    0.095756
 Sum of Mulliken charges =   0.00000

 Dipole moment (field-independent basis, Debye):
    X=             -4.0797    Y=             -0.0303    Z=             -0.0583  Tot=              4.0802
 Quadrupole moment (field-independent basis, Debye-Ang):
   XX=            -20.9057   YY=            -17.5795   ZZ=            -18.1897
   XY=              0.2565   XZ=             -0.1948   YZ=              0.0706

 Normal termination of Gaussian 09 at Wed Aug 26 19:30:23 2020.
