 Gaussian 09, Revision D.01,
 Gaussian 09:  ES64L-G09RevD.01 24-Apr-2013

 --------------------
 #p B2PLYPD3/Def2QZVP
 --------------------

 ------------
 cyanomethane
 ------------
 Symbolic Z-matrix:
 Charge =  0 Multiplicity = 1

                         Standard orientation:
 ---------------------------------------------------------------------
 Center     Atomic      Atomic             Coordinates (Angstroms)
 Number     Number       Type             X           Y           Z
 ---------------------------------------------------------------------
      1          6           0        1.165708   -0.000331   -0.013350
      2          6           0       -0.285711   -0.007247    0.052022
      3          7           0       -1.422526    0.004652   -0.025851
      4          1           0        1.569209    1.050408   -0.088568
      5          1           0        1.550853   -0.585773   -0.843407
      6          1           0        1.557638   -0.451738    0.880898
 ---------------------------------------------------------------------

 SCF Done:  E(RB2PLYPD3) =  -132.534279556     A.U. after   11 cycles
 E2(B2PLYPD3) =    -0.1793791193D+00 E(B2PLYPD3) =    -0.13271365867506D+03

 The electronic state is 1-A.
 Alpha  occ. eigenvalues --  -14.83826 -10.67179 -10.65817  -1.04780  -0.89029
 Alpha  occ. eigenvalues --   -0.59887  -0.53685  -0.53379  -0.44808  -0.39427
 Alpha  occ. eigenvalues --   -0.39386
 Alpha virt. eigenvalues --    0.03662   0.07692   0.08311   0.10134   0.11633
 Alpha virt. eigenvalues --    0.11729   0.15530   0.16007   0.17130   0.19957
 Alpha virt. eigenvalues --    0.20059   0.25669   0.32975   0.34329   0.34759

 Mulliken charges:
               1
     1  C   -0.083919
     2  C   -0.001598
     3  N   -0.197535
     4  H    0.094477
     5  H    0.096023
     6  H    0.092552
 Sum of Mulliken charges =   0.00000

 Dipole moment (field-independent basis, Debye):
    X=              4.0865    Y=             -0.0311    Z=              0.0483  Tot=              4.0869
 Quadrupole moment (field-independent basis, Debye-Ang):
   XX=            -20.9202   YY=            -17.6487   ZZ=            -17.8097
   XY=             -0.0155   XZ=             -0.1288   YZ=              0.0090

 Normal termination of Gaussian 09 at Wed Aug 26 13:09:40 2020.
