 Gaussian 09, Revision D.01,
 Gaussian 09:  ES64L-G09RevD.01 24-Apr-2013

 --------------------
 #p B2PLYPD3/Def2QZVP
 --------------------

 ------------
 cyanomethane
 ------------
 Symbolic Z-matrix:
 Charge =  0 Multiplicity = 1

                         Standard orientation:
 ---------------------------------------------------------------------
 Center     Atomic      Atomic             Coordinates (Angstroms)
 Number     Number       Type             X           Y           Z
 ---------------------------------------------------------------------
      1          6           0        1.171796    0.002407   -0.007975
      2          6           0       -0.281079   -0.003827    0.014370
      3          7           0       -1.431145    0.002947   -0.007321
      4          1           0        1.574746    1.040259   -0.134665
      5          1           0        1.554961   -0.650878   -0.801655
      6          1           0        1.544008   -0.401494    0.949198
 ---------------------------------------------------------------------

 SCF Done:  E(RB2PLYPD3) =  -132.534748652     A.U. after   12 cycles
 E2(B2PLYPD3) =    -0.1803469416D+00 E(B2PLYPD3) =    -0.13271509559370D+03

 The electronic state is 1-A.
 Alpha  occ. eigenvalues --  -14.84092 -10.67584 -10.66140  -1.04308  -0.88879
 Alpha  occ. eigenvalues --   -0.59636  -0.53647  -0.53298  -0.44801  -0.39162
 Alpha  occ. eigenvalues --   -0.39053
 Alpha virt. eigenvalues --    0.03667   0.07615   0.07855   0.10163   0.11541
 Alpha virt. eigenvalues --    0.11633   0.15419   0.16064   0.16745   0.20059
 Alpha virt. eigenvalues --    0.20081   0.25450   0.32680   0.34151   0.34569

 Mulliken charges:
               1
     1  C   -0.088991
     2  C   -0.000804
     3  N   -0.203337
     4  H    0.098525
     5  H    0.098800
     6  H    0.095806
 Sum of Mulliken charges =   0.00000

 Dipole moment (field-independent basis, Debye):
    X=              4.1125    Y=             -0.0206    Z=              0.0201  Tot=              4.1126
 Quadrupole moment (field-independent basis, Debye-Ang):
   XX=            -21.0232   YY=            -17.6888   ZZ=            -17.8322
   XY=             -0.0023   XZ=             -0.0282   YZ=              0.0144

 Normal termination of Gaussian 09 at Wed Aug 26 23:58:41 2020.
