 Gaussian 09, Revision D.01,
 Gaussian 09:  ES64L-G09RevD.01 24-Apr-2013

 --------------------
 #p B2PLYPD3/Def2QZVP
 --------------------

 ------------
 cyanomethane
 ------------
 Symbolic Z-matrix:
 Charge =  0 Multiplicity = 1

                         Standard orientation:
 ---------------------------------------------------------------------
 Center     Atomic      Atomic             Coordinates (Angstroms)
 Number     Number       Type             X           Y           Z
 ---------------------------------------------------------------------
      1          6           0        1.174477    0.000337   -0.009942
      2          6           0       -0.277419   -0.011816   -0.001014
      3          7           0       -1.430087    0.006275    0.003711
      4          1           0        1.571742   -0.023451    1.026879
      5          1           0        1.530298    0.925244   -0.467061
      6          1           0        1.526222   -0.876846   -0.520060
 ---------------------------------------------------------------------

 SCF Done:  E(RB2PLYPD3) =  -132.535137842     A.U. after   11 cycles
 E2(B2PLYPD3) =    -0.1803427108D+00 E(B2PLYPD3) =    -0.13271548055269D+03

 The electronic state is 1-A.
 Alpha  occ. eigenvalues --  -14.84100 -10.67142 -10.66137  -1.04175  -0.89288
 Alpha  occ. eigenvalues --   -0.59604  -0.54760  -0.53188  -0.44754  -0.39146
 Alpha  occ. eigenvalues --   -0.38946
 Alpha virt. eigenvalues --    0.03747   0.07694   0.08150   0.10175   0.11371
 Alpha virt. eigenvalues --    0.11653   0.15408   0.16212   0.16389   0.20043
 Alpha virt. eigenvalues --    0.20137   0.25438   0.32775   0.34172   0.34979

 Mulliken charges:
               1
     1  C   -0.086646
     2  C   -0.002036
     3  N   -0.205593
     4  H    0.093561
     5  H    0.099939
     6  H    0.100775
 Sum of Mulliken charges =   0.00000

 Dipole moment (field-independent basis, Debye):
    X=              4.1189    Y=             -0.0089    Z=              0.0056  Tot=              4.1189
 Quadrupole moment (field-independent basis, Debye-Ang):
   XX=            -21.0567   YY=            -17.6284   ZZ=            -17.8278
   XY=              0.0371   XZ=              0.0888   YZ=              0.0157

 Normal termination of Gaussian 09 at Wed Aug 26 08:49:19 2020.
