 Gaussian 09, Revision D.01,
 Gaussian 09:  ES64L-G09RevD.01 24-Apr-2013

 --------------------
 #p B2PLYPD3/Def2QZVP
 --------------------

 ------------
 cyanomethane
 ------------
 Symbolic Z-matrix:
 Charge =  0 Multiplicity = 1

                         Standard orientation:
 ---------------------------------------------------------------------
 Center     Atomic      Atomic             Coordinates (Angstroms)
 Number     Number       Type             X           Y           Z
 ---------------------------------------------------------------------
      1          6           0       -1.175948    0.012577    0.006389
      2          6           0        0.286772   -0.012983   -0.016946
      3          7           0        1.431543    0.005134    0.006746
      4          1           0       -1.557941    1.041143   -0.027853
      5          1           0       -1.545918   -0.508909    0.912020
      6          1           0       -1.581881   -0.565740   -0.868048
 ---------------------------------------------------------------------

 SCF Done:  E(RB2PLYPD3) =  -132.534602059     A.U. after   11 cycles
 E2(B2PLYPD3) =    -0.1799608160D+00 E(B2PLYPD3) =    -0.13271456287531D+03

 The electronic state is 1-A.
 Alpha  occ. eigenvalues --  -14.83965 -10.67768 -10.66037  -1.04498  -0.88594
 Alpha  occ. eigenvalues --   -0.59399  -0.53906  -0.52770  -0.44776  -0.39373
 Alpha  occ. eigenvalues --   -0.39169
 Alpha virt. eigenvalues --    0.03651   0.07758   0.07884   0.10186   0.11506
 Alpha virt. eigenvalues --    0.11711   0.15345   0.16142   0.16741   0.20007
 Alpha virt. eigenvalues --    0.20060   0.25295   0.32571   0.33980   0.34736

 Mulliken charges:
               1
     1  C   -0.091107
     2  C   -0.001962
     3  N   -0.200287
     4  H    0.101632
     5  H    0.097667
     6  H    0.094057
 Sum of Mulliken charges =   0.00000

 Dipole moment (field-independent basis, Debye):
    X=             -4.1059    Y=             -0.0197    Z=             -0.0067  Tot=              4.1059
 Quadrupole moment (field-independent basis, Debye-Ang):
   XX=            -21.0284   YY=            -17.6699   ZZ=            -17.8439
   XY=              0.0100   XZ=             -0.0197   YZ=             -0.0216

 Normal termination of Gaussian 09 at Wed Aug 26 09:48:57 2020.
