 Gaussian 09, Revision D.01,
 Gaussian 09:  ES64L-G09RevD.01 24-Apr-2013

 --------------------
 #p B2PLYPD3/Def2QZVP
 --------------------

 ------------
 cyanomethane
 ------------
 Symbolic Z-matrix:
 Charge =  0 Multiplicity = 1

                         Standard orientation:
 ---------------------------------------------------------------------
 Center     Atomic      Atomic             Coordinates (Angstroms)
 Number     Number       Type             X           Y           Z
 ---------------------------------------------------------------------
      1          6           0        1.178547    0.000875   -0.015971
      2          6           0       -0.264350    0.020977    0.008061
      3          7           0       -1.421516    0.002060    0.002811
      4          1           0        1.513134   -0.341193    0.963104
      5          1           0        1.635154    0.962694   -0.225350
      6          1           0        1.317140   -0.767039   -0.709972
 ---------------------------------------------------------------------

 SCF Done:  E(RB2PLYPD3) =  -132.529127794     A.U. after   12 cycles
 E2(B2PLYPD3) =    -0.1806343692D+00 E(B2PLYPD3) =    -0.13270976216345D+03

 The electronic state is 1-A.
 Alpha  occ. eigenvalues --  -14.83977 -10.66575 -10.66070  -1.03942  -0.90252
 Alpha  occ. eigenvalues --   -0.59342  -0.55800  -0.53899  -0.44559  -0.38909
 Alpha  occ. eigenvalues --   -0.38634
 Alpha virt. eigenvalues --    0.03847   0.07740   0.08657   0.10237   0.11315
 Alpha virt. eigenvalues --    0.11697   0.14926   0.15590   0.16664   0.20103
 Alpha virt. eigenvalues --    0.20247   0.25551   0.32733   0.34144   0.35417

 Mulliken charges:
               1
     1  C   -0.097398
     2  C   -0.002618
     3  N   -0.211829
     4  H    0.097453
     5  H    0.104305
     6  H    0.110087
 Sum of Mulliken charges =   0.00000

 Dipole moment (field-independent basis, Debye):
    X=              4.1189    Y=             -0.0295    Z=              0.0138  Tot=              4.1190
 Quadrupole moment (field-independent basis, Debye-Ang):
   XX=            -21.2698   YY=            -17.5139   ZZ=            -17.7814
   XY=              0.1916   XZ=              0.1685   YZ=              0.0533

 Normal termination of Gaussian 09 at Wed Aug 26 22:31:39 2020.
