 Gaussian 09, Revision D.01,
 Gaussian 09:  ES64L-G09RevD.01 24-Apr-2013

 --------------------
 #p B2PLYPD3/Def2QZVP
 --------------------

 ------------
 cyanomethane
 ------------
 Symbolic Z-matrix:
 Charge =  0 Multiplicity = 1

                         Standard orientation:
 ---------------------------------------------------------------------
 Center     Atomic      Atomic             Coordinates (Angstroms)
 Number     Number       Type             X           Y           Z
 ---------------------------------------------------------------------
      1          6           0        1.165751    0.020621   -0.005732
      2          6           0       -0.289220   -0.040611   -0.007547
      3          7           0       -1.422012    0.019631    0.006512
      4          1           0        1.590660   -0.019245    1.006742
      5          1           0        1.556983    0.882812   -0.476002
      6          1           0        1.547255   -0.881048   -0.496647
 ---------------------------------------------------------------------

 SCF Done:  E(RB2PLYPD3) =  -132.534457205     A.U. after   11 cycles
 E2(B2PLYPD3) =    -0.1788066863D+00 E(B2PLYPD3) =    -0.13271326389137D+03

 The electronic state is 1-A.
 Alpha  occ. eigenvalues --  -14.83699 -10.66804 -10.65713  -1.04989  -0.89214
 Alpha  occ. eigenvalues --   -0.60228  -0.54430  -0.52910  -0.44807  -0.39724
 Alpha  occ. eigenvalues --   -0.39447
 Alpha virt. eigenvalues --    0.03788   0.08057   0.08351   0.10143   0.11598
 Alpha virt. eigenvalues --    0.11834   0.15570   0.16125   0.17314   0.19931
 Alpha virt. eigenvalues --    0.20062   0.25580   0.33060   0.34282   0.35366

 Mulliken charges:
               1
     1  C   -0.076260
     2  C   -0.002487
     3  N   -0.194980
     4  H    0.087946
     5  H    0.096783
     6  H    0.088998
 Sum of Mulliken charges =   0.00000

 Dipole moment (field-independent basis, Debye):
    X=              4.0936    Y=             -0.0397    Z=             -0.0014  Tot=              4.0938
 Quadrupole moment (field-independent basis, Debye-Ang):
   XX=            -20.8122   YY=            -17.6405   ZZ=            -17.8120
   XY=              0.0996   XZ=              0.0960   YZ=             -0.0433

 Normal termination of Gaussian 09 at Wed Aug 26 12:51:16 2020.
