 Gaussian 09, Revision D.01,
 Gaussian 09:  ES64L-G09RevD.01 24-Apr-2013

 --------------------
 #p B2PLYPD3/Def2QZVP
 --------------------

 ------------
 cyanomethane
 ------------
 Symbolic Z-matrix:
 Charge =  0 Multiplicity = 1

                         Standard orientation:
 ---------------------------------------------------------------------
 Center     Atomic      Atomic             Coordinates (Angstroms)
 Number     Number       Type             X           Y           Z
 ---------------------------------------------------------------------
      1          6           0       -1.178170   -0.006982   -0.010582
      2          6           0        0.286518    0.012872    0.012614
      3          7           0        1.435925   -0.006420   -0.006150
      4          1           0       -1.577300   -0.645723   -0.799877
      5          1           0       -1.563381    1.031725   -0.145938
      6          1           0       -1.560879   -0.376405    0.976674
 ---------------------------------------------------------------------

 SCF Done:  E(RB2PLYPD3) =  -132.534339540     A.U. after   12 cycles
 E2(B2PLYPD3) =    -0.1803497843D+00 E(B2PLYPD3) =    -0.13271468932402D+03

 The electronic state is 1-A.
 Alpha  occ. eigenvalues --  -14.84123 -10.67785 -10.66215  -1.04325  -0.88579
 Alpha  occ. eigenvalues --   -0.59543  -0.53635  -0.52935  -0.44814  -0.39263
 Alpha  occ. eigenvalues --   -0.39108
 Alpha virt. eigenvalues --    0.03647   0.07714   0.07765   0.10171   0.11486
 Alpha virt. eigenvalues --    0.11604   0.15342   0.16113   0.16783   0.20045
 Alpha virt. eigenvalues --    0.20064   0.25250   0.32515   0.33969   0.34716

 Mulliken charges:
               1
     1  C   -0.089479
     2  C   -0.000637
     3  N   -0.202482
     4  H    0.100645
     5  H    0.096387
     6  H    0.095566
 Sum of Mulliken charges =   0.00000

 Dipole moment (field-independent basis, Debye):
    X=             -4.1161    Y=              0.0097    Z=              0.0119  Tot=              4.1162
 Quadrupole moment (field-independent basis, Debye-Ang):
   XX=            -21.0006   YY=            -17.7789   ZZ=            -17.7878
   XY=              0.0406   XZ=              0.0356   YZ=              0.0319

 Normal termination of Gaussian 09 at Wed Aug 26 11:10:00 2020.
