 Gaussian 09, Revision D.01,
 Gaussian 09:  ES64L-G09RevD.01 24-Apr-2013

 --------------------
 #p B2PLYPD3/Def2QZVP
 --------------------

 ------------
 cyanomethane
 ------------
 Symbolic Z-matrix:
 Charge =  0 Multiplicity = 1

                         Standard orientation:
 ---------------------------------------------------------------------
 Center     Atomic      Atomic             Coordinates (Angstroms)
 Number     Number       Type             X           Y           Z
 ---------------------------------------------------------------------
      1          6           0        1.188373   -0.020576   -0.011338
      2          6           0       -0.290596   -0.019446    0.036318
      3          7           0       -1.417975    0.014606   -0.024000
      4          1           0        1.581576    0.928172   -0.453626
      5          1           0        1.528953   -0.809129   -0.504171
      6          1           0        1.428640    0.018849    0.975920
 ---------------------------------------------------------------------

 SCF Done:  E(RB2PLYPD3) =  -132.522621349     A.U. after   12 cycles
 E2(B2PLYPD3) =    -0.1779635637D+00 E(B2PLYPD3) =    -0.13270058491230D+03

 The electronic state is 1-A.
 Alpha  occ. eigenvalues --  -14.83368 -10.65760 -10.65396  -1.05028  -0.90184
 Alpha  occ. eigenvalues --   -0.59424  -0.56771  -0.53282  -0.44555  -0.40008
 Alpha  occ. eigenvalues --   -0.39546
 Alpha virt. eigenvalues --    0.03828   0.08512   0.09748   0.10254   0.11291
 Alpha virt. eigenvalues --    0.11726   0.15439   0.15491   0.17238   0.19936
 Alpha virt. eigenvalues --    0.20063   0.25058   0.32917   0.34404   0.36295

 Mulliken charges:
               1
     1  C   -0.085521
     2  C   -0.009740
     3  N   -0.193876
     4  H    0.088778
     5  H    0.101972
     6  H    0.098388
 Sum of Mulliken charges =   0.00000

 Dipole moment (field-independent basis, Debye):
    X=              4.0875    Y=             -0.0157    Z=              0.0716  Tot=              4.0882
 Quadrupole moment (field-independent basis, Debye-Ang):
   XX=            -20.9941   YY=            -17.5412   ZZ=            -17.6192
   XY=              0.1467   XZ=             -0.1734   YZ=              0.1177

 Normal termination of Gaussian 09 at Wed Aug 26 18:39:49 2020.
