 Gaussian 09, Revision D.01,
 Gaussian 09:  ES64L-G09RevD.01 24-Apr-2013

 --------------------
 #p B2PLYPD3/Def2QZVP
 --------------------

 ------------
 cyanomethane
 ------------
 Symbolic Z-matrix:
 Charge =  0 Multiplicity = 1

                         Standard orientation:
 ---------------------------------------------------------------------
 Center     Atomic      Atomic             Coordinates (Angstroms)
 Number     Number       Type             X           Y           Z
 ---------------------------------------------------------------------
      1          6           0        1.176758    0.000439   -0.009354
      2          6           0       -0.274619   -0.000294   -0.021018
      3          7           0       -1.440205   -0.000266    0.009513
      4          1           0        1.557803    1.004004   -0.145944
      5          1           0        1.586393   -0.666417   -0.711230
      6          1           0        1.524404   -0.336594    0.972811
 ---------------------------------------------------------------------

 SCF Done:  E(RB2PLYPD3) =  -132.533415682     A.U. after   12 cycles
 E2(B2PLYPD3) =    -0.1813293392D+00 E(B2PLYPD3) =    -0.13271474502084D+03

 The electronic state is 1-A.
 Alpha  occ. eigenvalues --  -14.84543 -10.66701 -10.66609  -1.03700  -0.89644
 Alpha  occ. eigenvalues --   -0.60372  -0.54850  -0.53405  -0.44875  -0.38937
 Alpha  occ. eigenvalues --   -0.38679
 Alpha virt. eigenvalues --    0.03785   0.07638   0.07925   0.10159   0.11171
 Alpha virt. eigenvalues --    0.11528   0.15463   0.16126   0.16681   0.20098
 Alpha virt. eigenvalues --    0.20195   0.25449   0.32743   0.34247   0.35339

 Mulliken charges:
               1
     1  C   -0.073234
     2  C    0.001573
     3  N   -0.211721
     4  H    0.095888
     5  H    0.096208
     6  H    0.091286
 Sum of Mulliken charges =   0.00000

 Dipole moment (field-independent basis, Debye):
    X=              4.1560    Y=             -0.0106    Z=              0.0077  Tot=              4.1561
 Quadrupole moment (field-independent basis, Debye-Ang):
   XX=            -20.8869   YY=            -17.7112   ZZ=            -17.8814
   XY=             -0.0361   XZ=              0.0617   YZ=              0.0386

 Normal termination of Gaussian 09 at Thu Aug 27 00:09:03 2020.
