 Gaussian 09, Revision D.01,
 Gaussian 09:  ES64L-G09RevD.01 24-Apr-2013

 --------------------
 #p B2PLYPD3/Def2QZVP
 --------------------

 ------------
 cyanomethane
 ------------
 Symbolic Z-matrix:
 Charge =  0 Multiplicity = 1

                         Standard orientation:
 ---------------------------------------------------------------------
 Center     Atomic      Atomic             Coordinates (Angstroms)
 Number     Number       Type             X           Y           Z
 ---------------------------------------------------------------------
      1          6           0       -1.165698    0.001353    0.038080
      2          6           0        0.281694   -0.008907   -0.040871
      3          7           0        1.429737   -0.000523    0.017611
      4          1           0       -1.495894    0.985590   -0.195776
      5          1           0       -1.598271   -0.324808    0.854137
      6          1           0       -1.609966   -0.611792   -0.764894
 ---------------------------------------------------------------------

 SCF Done:  E(RB2PLYPD3) =  -132.523958953     A.U. after   12 cycles
 E2(B2PLYPD3) =    -0.1798186420D+00 E(B2PLYPD3) =    -0.13270377759542D+03

 The electronic state is 1-A.
 Alpha  occ. eigenvalues --  -14.84182 -10.66231 -10.65713  -1.04453  -0.90279
 Alpha  occ. eigenvalues --   -0.61814  -0.55400  -0.52864  -0.44939  -0.39498
 Alpha  occ. eigenvalues --   -0.39053
 Alpha virt. eigenvalues --    0.03902   0.07892   0.08415   0.10069   0.11399
 Alpha virt. eigenvalues --    0.11753   0.15585   0.16059   0.17677   0.20087
 Alpha virt. eigenvalues --    0.20167   0.25705   0.32861   0.34439   0.35905

 Mulliken charges:
               1
     1  C   -0.059181
     2  C    0.006897
     3  N   -0.204404
     4  H    0.087539
     5  H    0.092791
     6  H    0.076359
 Sum of Mulliken charges =   0.00000

 Dipole moment (field-independent basis, Debye):
    X=             -4.1305    Y=              0.0033    Z=             -0.0411  Tot=              4.1307
 Quadrupole moment (field-independent basis, Debye-Ang):
   XX=            -20.6106   YY=            -17.7470   ZZ=            -17.8023
   XY=              0.0841   XZ=             -0.0574   YZ=             -0.1028

 Normal termination of Gaussian 09 at Wed Aug 26 22:22:28 2020.
