 Gaussian 09, Revision D.01,
 Gaussian 09:  ES64L-G09RevD.01 24-Apr-2013

 --------------------
 #p B2PLYPD3/Def2QZVP
 --------------------

 ------------
 cyanomethane
 ------------
 Symbolic Z-matrix:
 Charge =  0 Multiplicity = 1

                         Standard orientation:
 ---------------------------------------------------------------------
 Center     Atomic      Atomic             Coordinates (Angstroms)
 Number     Number       Type             X           Y           Z
 ---------------------------------------------------------------------
      1          6           0       -1.168787   -0.008385    0.002721
      2          6           0        0.278513    0.006444    0.000404
      3          7           0        1.432520    0.002457    0.000531
      4          1           0       -1.550967   -0.389602    0.943558
      5          1           0       -1.510145   -0.648739   -0.812013
      6          1           0       -1.624887    1.032786   -0.154010
 ---------------------------------------------------------------------

 SCF Done:  E(RB2PLYPD3) =  -132.533270302     A.U. after   12 cycles
 E2(B2PLYPD3) =    -0.1806907297D+00 E(B2PLYPD3) =    -0.13271396103197D+03

 The electronic state is 1-A.
 Alpha  occ. eigenvalues --  -14.84216 -10.67547 -10.66257  -1.04190  -0.89004
 Alpha  occ. eigenvalues --   -0.59864  -0.54120  -0.52776  -0.44845  -0.39072
 Alpha  occ. eigenvalues --   -0.38936
 Alpha virt. eigenvalues --    0.03651   0.07267   0.07931   0.10160   0.11505
 Alpha virt. eigenvalues --    0.11657   0.15447   0.16207   0.16648   0.20070
 Alpha virt. eigenvalues --    0.20109   0.25528   0.32477   0.34138   0.34688

 Mulliken charges:
               1
     1  C   -0.086830
     2  C    0.000346
     3  N   -0.205134
     4  H    0.099062
     5  H    0.099430
     6  H    0.093125
 Sum of Mulliken charges =   0.00000

 Dipole moment (field-independent basis, Debye):
    X=             -4.1182    Y=             -0.0228    Z=              0.0012  Tot=              4.1183
 Quadrupole moment (field-independent basis, Debye-Ang):
   XX=            -20.9857   YY=            -17.7905   ZZ=            -17.7765
   XY=             -0.0581   XZ=             -0.0256   YZ=              0.0132

 Normal termination of Gaussian 09 at Wed Aug 26 11:07:15 2020.
