 Gaussian 09, Revision D.01,
 Gaussian 09:  ES64L-G09RevD.01 24-Apr-2013

 --------------------
 #p B2PLYPD3/Def2QZVP
 --------------------

 ------------
 cyanomethane
 ------------
 Symbolic Z-matrix:
 Charge =  0 Multiplicity = 1

                         Standard orientation:
 ---------------------------------------------------------------------
 Center     Atomic      Atomic             Coordinates (Angstroms)
 Number     Number       Type             X           Y           Z
 ---------------------------------------------------------------------
      1          6           0       -1.170223   -0.007535    0.011933
      2          6           0        0.273563    0.018584   -0.000807
      3          7           0        1.430477   -0.008538   -0.002867
      4          1           0       -1.552485    1.008826   -0.118806
      5          1           0       -1.517241   -0.417698    0.908086
      6          1           0       -1.563654   -0.597653   -0.835966
 ---------------------------------------------------------------------

 SCF Done:  E(RB2PLYPD3) =  -132.534031542     A.U. after   11 cycles
 E2(B2PLYPD3) =    -0.1806022221D+00 E(B2PLYPD3) =    -0.13271463376387D+03

 The electronic state is 1-A.
 Alpha  occ. eigenvalues --  -14.84241 -10.66736 -10.66255  -1.04039  -0.89672
 Alpha  occ. eigenvalues --   -0.60099  -0.54995  -0.53351  -0.44808  -0.39058
 Alpha  occ. eigenvalues --   -0.38834
 Alpha virt. eigenvalues --    0.03792   0.07647   0.08137   0.10146   0.11355
 Alpha virt. eigenvalues --    0.11603   0.15521   0.16154   0.16533   0.20080
 Alpha virt. eigenvalues --    0.20149   0.25605   0.32848   0.34221   0.35240

 Mulliken charges:
               1
     1  C   -0.079340
     2  C   -0.000570
     3  N   -0.208033
     4  H    0.094106
     5  H    0.100451
     6  H    0.093385
 Sum of Mulliken charges =   0.00000

 Dipole moment (field-independent basis, Debye):
    X=             -4.1286    Y=              0.0125    Z=              0.0022  Tot=              4.1286
 Quadrupole moment (field-independent basis, Debye-Ang):
   XX=            -20.9733   YY=            -17.7622   ZZ=            -17.7184
   XY=              0.0382   XZ=              0.0601   YZ=             -0.0499

 Normal termination of Gaussian 09 at Wed Aug 26 15:08:55 2020.
