 Gaussian 09, Revision D.01,
 Gaussian 09:  ES64L-G09RevD.01 24-Apr-2013

 --------------------
 #p B2PLYPD3/Def2QZVP
 --------------------

 ------------
 cyanomethane
 ------------
 Symbolic Z-matrix:
 Charge =  0 Multiplicity = 1

                         Standard orientation:
 ---------------------------------------------------------------------
 Center     Atomic      Atomic             Coordinates (Angstroms)
 Number     Number       Type             X           Y           Z
 ---------------------------------------------------------------------
      1          6           0       -1.173442    0.007690    0.011151
      2          6           0        0.265249   -0.012902    0.035969
      3          7           0        1.432746    0.009993   -0.022744
      4          1           0       -1.472175   -0.382829    0.936863
      5          1           0       -1.523026   -0.706720   -0.840264
      6          1           0       -1.584868    1.050872   -0.220115
 ---------------------------------------------------------------------

 SCF Done:  E(RB2PLYPD3) =  -132.525493150     A.U. after   12 cycles
 E2(B2PLYPD3) =    -0.1822479512D+00 E(B2PLYPD3) =    -0.13270774110120D+03

 The electronic state is 1-A.
 Alpha  occ. eigenvalues --  -14.84496 -10.67885 -10.66516  -1.03539  -0.89225
 Alpha  occ. eigenvalues --   -0.59104  -0.55100  -0.52383  -0.44767  -0.38650
 Alpha  occ. eigenvalues --   -0.38295
 Alpha virt. eigenvalues --    0.03406   0.06598   0.08108   0.10069   0.11147
 Alpha virt. eigenvalues --    0.11693   0.15338   0.15479   0.16521   0.20098
 Alpha virt. eigenvalues --    0.20251   0.25648   0.32269   0.33086   0.34678

 Mulliken charges:
               1
     1  C   -0.103021
     2  C    0.002811
     3  N   -0.213594
     4  H    0.109740
     5  H    0.098892
     6  H    0.105172
 Sum of Mulliken charges =   0.00000

 Dipole moment (field-independent basis, Debye):
    X=             -4.1098    Y=             -0.0270    Z=              0.0322  Tot=              4.1100
 Quadrupole moment (field-independent basis, Debye-Ang):
   XX=            -21.3104   YY=            -17.7171   ZZ=            -17.7814
   XY=             -0.0858   XZ=              0.1687   YZ=             -0.0859

 Normal termination of Gaussian 09 at Wed Aug 26 12:50:14 2020.
