 Gaussian 09, Revision D.01,
 Gaussian 09:  ES64L-G09RevD.01 24-Apr-2013

 --------------------
 #p B2PLYPD3/Def2QZVP
 --------------------

 ------------
 cyanomethane
 ------------
 Symbolic Z-matrix:
 Charge =  0 Multiplicity = 1

                         Standard orientation:
 ---------------------------------------------------------------------
 Center     Atomic      Atomic             Coordinates (Angstroms)
 Number     Number       Type             X           Y           Z
 ---------------------------------------------------------------------
      1          6           0       -1.203417   -0.008021   -0.014458
      2          6           0        0.272392    0.000824    0.035886
      3          7           0        1.451172   -0.006223   -0.009555
      4          1           0       -1.412551    0.998015   -0.205871
      5          1           0       -1.658410   -0.291082    0.892102
      6          1           0       -1.501093   -0.620189   -0.747914
 ---------------------------------------------------------------------

 SCF Done:  E(RB2PLYPD3) =  -132.523191124     A.U. after   12 cycles
 E2(B2PLYPD3) =    -0.1821184762D+00 E(B2PLYPD3) =    -0.13270530959973D+03

 The electronic state is 1-A.
 Alpha  occ. eigenvalues --  -14.84829 -10.67010 -10.65727  -1.03072  -0.90492
 Alpha  occ. eigenvalues --   -0.60103  -0.56214  -0.54519  -0.44747  -0.38695
 Alpha  occ. eigenvalues --   -0.38493
 Alpha virt. eigenvalues --    0.03948   0.07832   0.08472   0.10216   0.11005
 Alpha virt. eigenvalues --    0.11089   0.15047   0.15643   0.16641   0.20205
 Alpha virt. eigenvalues --    0.20237   0.24980   0.32343   0.34963   0.35853

 Mulliken charges:
               1
     1  C   -0.073629
     2  C    0.001381
     3  N   -0.219688
     4  H    0.099972
     5  H    0.091264
     6  H    0.100699
 Sum of Mulliken charges =   0.00000

 Dipole moment (field-independent basis, Debye):
    X=             -4.1902    Y=              0.0197    Z=              0.0057  Tot=              4.1902
 Quadrupole moment (field-independent basis, Debye-Ang):
   XX=            -20.9416   YY=            -17.7080   ZZ=            -17.8253
   XY=              0.1271   XZ=             -0.0791   YZ=              0.0465

 Normal termination of Gaussian 09 at Wed Aug 26 22:10:18 2020.
