 Gaussian 09, Revision D.01,
 Gaussian 09:  ES64L-G09RevD.01 24-Apr-2013

 --------------------
 #p B2PLYPD3/Def2QZVP
 --------------------

 ------------
 cyanomethane
 ------------
 Symbolic Z-matrix:
 Charge =  0 Multiplicity = 1

                         Standard orientation:
 ---------------------------------------------------------------------
 Center     Atomic      Atomic             Coordinates (Angstroms)
 Number     Number       Type             X           Y           Z
 ---------------------------------------------------------------------
      1          6           0       -1.187687    0.001429   -0.002869
      2          6           0        0.282458   -0.024726    0.006563
      3          7           0        1.435219    0.013584   -0.004877
      4          1           0       -1.549032    1.030680   -0.012282
      5          1           0       -1.512824   -0.478161    0.891454
      6          1           0       -1.553302   -0.507820   -0.867197
 ---------------------------------------------------------------------

 SCF Done:  E(RB2PLYPD3) =  -132.535101176     A.U. after   11 cycles
 E2(B2PLYPD3) =    -0.1801836099D+00 E(B2PLYPD3) =    -0.13271528478635D+03

 The electronic state is 1-A.
 Alpha  occ. eigenvalues --  -14.84121 -10.66819 -10.66202  -1.04100  -0.89377
 Alpha  occ. eigenvalues --   -0.59364  -0.54743  -0.53933  -0.44712  -0.39186
 Alpha  occ. eigenvalues --   -0.39104
 Alpha virt. eigenvalues --    0.03798   0.08010   0.08472   0.10202   0.11277
 Alpha virt. eigenvalues --    0.11432   0.15328   0.15963   0.16521   0.20063
 Alpha virt. eigenvalues --    0.20108   0.25130   0.32737   0.34645   0.35053

 Mulliken charges:
               1
     1  C   -0.084209
     2  C   -0.003679
     3  N   -0.206086
     4  H    0.096834
     5  H    0.098658
     6  H    0.098483
 Sum of Mulliken charges =   0.00000

 Dipole moment (field-independent basis, Debye):
    X=             -4.1299    Y=             -0.0193    Z=              0.0108  Tot=              4.1300
 Quadrupole moment (field-independent basis, Debye-Ang):
   XX=            -21.0414   YY=            -17.7361   ZZ=            -17.6934
   XY=             -0.0898   XZ=              0.0486   YZ=              0.0016

 Normal termination of Gaussian 09 at Wed Aug 26 15:47:48 2020.
