 Gaussian 09, Revision D.01,
 Gaussian 09:  ES64L-G09RevD.01 24-Apr-2013

 --------------------
 #p B2PLYPD3/Def2QZVP
 --------------------

 ------------
 cyanomethane
 ------------
 Symbolic Z-matrix:
 Charge =  0 Multiplicity = 1

                         Standard orientation:
 ---------------------------------------------------------------------
 Center     Atomic      Atomic             Coordinates (Angstroms)
 Number     Number       Type             X           Y           Z
 ---------------------------------------------------------------------
      1          6           0       -1.191063    0.011077    0.001115
      2          6           0        0.275995    0.031984   -0.013179
      3          7           0        1.438489   -0.022387    0.009967
      4          1           0       -1.463705    1.039228   -0.071258
      5          1           0       -1.590615   -0.504183    0.944060
      6          1           0       -1.524701   -0.636703   -0.870184
 ---------------------------------------------------------------------

 SCF Done:  E(RB2PLYPD3) =  -132.527972676     A.U. after   12 cycles
 E2(B2PLYPD3) =    -0.1817586958D+00 E(B2PLYPD3) =    -0.13270973137189D+03

 The electronic state is 1-A.
 Alpha  occ. eigenvalues --  -14.84357 -10.68109 -10.66455  -1.03649  -0.88721
 Alpha  occ. eigenvalues --   -0.58477  -0.55194  -0.52272  -0.44672  -0.38861
 Alpha  occ. eigenvalues --   -0.38563
 Alpha virt. eigenvalues --    0.03468   0.06989   0.08288   0.10129   0.11033
 Alpha virt. eigenvalues --    0.11600   0.15074   0.15626   0.16306   0.20048
 Alpha virt. eigenvalues --    0.20215   0.25140   0.32223   0.33248   0.34739

 Mulliken charges:
               1
     1  C   -0.105470
     2  C   -0.000403
     3  N   -0.210846
     4  H    0.112134
     5  H    0.101350
     6  H    0.103235
 Sum of Mulliken charges =   0.00000

 Dipole moment (field-independent basis, Debye):
    X=             -4.1119    Y=              0.0146    Z=             -0.0145  Tot=              4.1119
 Quadrupole moment (field-independent basis, Debye-Ang):
   XX=            -21.3626   YY=            -17.5912   ZZ=            -17.8886
   XY=              0.2436   XZ=             -0.1098   YZ=              0.0024

 Normal termination of Gaussian 09 at Wed Aug 26 15:03:53 2020.
