 Gaussian 09, Revision D.01,
 Gaussian 09:  ES64L-G09RevD.01 24-Apr-2013

 --------------------
 #p B2PLYPD3/Def2QZVP
 --------------------

 ------------
 cyanomethane
 ------------
 Symbolic Z-matrix:
 Charge =  0 Multiplicity = 1

                         Standard orientation:
 ---------------------------------------------------------------------
 Center     Atomic      Atomic             Coordinates (Angstroms)
 Number     Number       Type             X           Y           Z
 ---------------------------------------------------------------------
      1          6           0        1.175587    0.009146    0.000149
      2          6           0       -0.283545   -0.001734   -0.010405
      3          7           0       -1.437273   -0.000859    0.007394
      4          1           0        1.598143   -0.250344    0.973586
      5          1           0        1.552004    0.957905   -0.278979
      6          1           0        1.558519   -0.746022   -0.684826
 ---------------------------------------------------------------------

 SCF Done:  E(RB2PLYPD3) =  -132.534900099     A.U. after   11 cycles
 E2(B2PLYPD3) =    -0.1803333471D+00 E(B2PLYPD3) =    -0.13271523344637D+03

 The electronic state is 1-A.
 Alpha  occ. eigenvalues --  -14.84263 -10.66821 -10.66339  -1.04193  -0.89339
 Alpha  occ. eigenvalues --   -0.60298  -0.54501  -0.53169  -0.44872  -0.39246
 Alpha  occ. eigenvalues --   -0.39068
 Alpha virt. eigenvalues --    0.03792   0.07745   0.08149   0.10182   0.11341
 Alpha virt. eigenvalues --    0.11580   0.15459   0.16359   0.16791   0.20042
 Alpha virt. eigenvalues --    0.20123   0.25332   0.32778   0.34502   0.35199

 Mulliken charges:
               1
     1  C   -0.072309
     2  C    0.000032
     3  N   -0.205324
     4  H    0.090419
     5  H    0.095941
     6  H    0.091241
 Sum of Mulliken charges =   0.00000

 Dipole moment (field-independent basis, Debye):
    X=              4.1405    Y=             -0.0058    Z=             -0.0099  Tot=              4.1405
 Quadrupole moment (field-independent basis, Debye-Ang):
   XX=            -20.8111   YY=            -17.7259   ZZ=            -17.8578
   XY=             -0.0387   XZ=              0.0778   YZ=             -0.0175

 Normal termination of Gaussian 09 at Wed Aug 26 10:15:42 2020.
