 Gaussian 09, Revision D.01,
 Gaussian 09:  ES64L-G09RevD.01 24-Apr-2013

 --------------------
 #p B2PLYPD3/Def2QZVP
 --------------------

 ------------
 cyanomethane
 ------------
 Symbolic Z-matrix:
 Charge =  0 Multiplicity = 1

                         Standard orientation:
 ---------------------------------------------------------------------
 Center     Atomic      Atomic             Coordinates (Angstroms)
 Number     Number       Type             X           Y           Z
 ---------------------------------------------------------------------
      1          6           0       -1.187954   -0.001024    0.003623
      2          6           0        0.287282    0.017255   -0.005180
      3          7           0        1.434034   -0.007696   -0.000915
      4          1           0       -1.496756   -0.432023    0.935643
      5          1           0       -1.570579   -0.627053   -0.815122
      6          1           0       -1.566868    1.015563   -0.104766
 ---------------------------------------------------------------------

 SCF Done:  E(RB2PLYPD3) =  -132.535680023     A.U. after   12 cycles
 E2(B2PLYPD3) =    -0.1797823351D+00 E(B2PLYPD3) =    -0.13271546235855D+03

 The electronic state is 1-A.
 Alpha  occ. eigenvalues --  -14.83950 -10.67235 -10.66050  -1.04348  -0.88968
 Alpha  occ. eigenvalues --   -0.59121  -0.54371  -0.53605  -0.44688  -0.39335
 Alpha  occ. eigenvalues --   -0.39263
 Alpha virt. eigenvalues --    0.03760   0.08050   0.08376   0.10234   0.11381
 Alpha virt. eigenvalues --    0.11515   0.15263   0.16132   0.16451   0.20024
 Alpha virt. eigenvalues --    0.20077   0.25017   0.32602   0.34543   0.34865

 Mulliken charges:
               1
     1  C   -0.089380
     2  C   -0.004720
     3  N   -0.202259
     4  H    0.100604
     5  H    0.096834
     6  H    0.098920
 Sum of Mulliken charges =   0.00000

 Dipole moment (field-independent basis, Debye):
    X=             -4.1204    Y=              0.0010    Z=              0.0084  Tot=              4.1204
 Quadrupole moment (field-independent basis, Debye-Ang):
   XX=            -21.0648   YY=            -17.6758   ZZ=            -17.7543
   XY=              0.0462   XZ=              0.0479   YZ=             -0.0235

 Normal termination of Gaussian 09 at Wed Aug 26 10:12:16 2020.
