 Gaussian 09, Revision D.01,
 Gaussian 09:  ES64L-G09RevD.01 24-Apr-2013

 --------------------
 #p B2PLYPD3/Def2QZVP
 --------------------

 ------------
 cyanomethane
 ------------
 Symbolic Z-matrix:
 Charge =  0 Multiplicity = 1

                         Standard orientation:
 ---------------------------------------------------------------------
 Center     Atomic      Atomic             Coordinates (Angstroms)
 Number     Number       Type             X           Y           Z
 ---------------------------------------------------------------------
      1          6           0        1.176106    0.017066    0.001243
      2          6           0       -0.285481   -0.033111   -0.005368
      3          7           0       -1.440039    0.017969    0.003540
      4          1           0        1.608207    1.039841   -0.170452
      5          1           0        1.549816   -0.686070   -0.795698
      6          1           0        1.578497   -0.383286    0.966122
 ---------------------------------------------------------------------

 SCF Done:  E(RB2PLYPD3) =  -132.531662996     A.U. after   12 cycles
 E2(B2PLYPD3) =    -0.1811404991D+00 E(B2PLYPD3) =    -0.13271280349471D+03

 The electronic state is 1-A.
 Alpha  occ. eigenvalues --  -14.84352 -10.68177 -10.66451  -1.04129  -0.88330
 Alpha  occ. eigenvalues --   -0.59604  -0.53191  -0.52626  -0.44894  -0.39107
 Alpha  occ. eigenvalues --   -0.38922
 Alpha virt. eigenvalues --    0.03522   0.07211   0.07599   0.10108   0.11475
 Alpha virt. eigenvalues --    0.11587   0.15343   0.15851   0.17123   0.20061
 Alpha virt. eigenvalues --    0.20113   0.25388   0.32397   0.33752   0.34415

 Mulliken charges:
               1
     1  C   -0.090893
     2  C    0.002592
     3  N   -0.204711
     4  H    0.101402
     5  H    0.095427
     6  H    0.096182
 Sum of Mulliken charges =   0.00000

 Dipole moment (field-independent basis, Debye):
    X=              4.1188    Y=             -0.0431    Z=             -0.0002  Tot=              4.1190
 Quadrupole moment (field-independent basis, Debye-Ang):
   XX=            -20.9821   YY=            -17.7442   ZZ=            -17.9289
   XY=              0.0942   XZ=              0.0470   YZ=             -0.0135

 Normal termination of Gaussian 09 at Wed Aug 26 15:00:31 2020.
