 Gaussian 09, Revision D.01,
 Gaussian 09:  ES64L-G09RevD.01 24-Apr-2013

 --------------------
 #p B2PLYPD3/Def2QZVP
 --------------------

 ------------
 cyanomethane
 ------------
 Symbolic Z-matrix:
 Charge =  0 Multiplicity = 1

                         Standard orientation:
 ---------------------------------------------------------------------
 Center     Atomic      Atomic             Coordinates (Angstroms)
 Number     Number       Type             X           Y           Z
 ---------------------------------------------------------------------
      1          6           0       -1.185803   -0.007425    0.009040
      2          6           0        0.281836   -0.007472   -0.023039
      3          7           0        1.436992    0.005634    0.010568
      4          1           0       -1.535241   -0.122147    1.008511
      5          1           0       -1.539982   -0.799748   -0.616687
      6          1           0       -1.559921    0.971836   -0.381807
 ---------------------------------------------------------------------

 SCF Done:  E(RB2PLYPD3) =  -132.534453269     A.U. after   11 cycles
 E2(B2PLYPD3) =    -0.1805065990D+00 E(B2PLYPD3) =    -0.13271495986770D+03

 The electronic state is 1-A.
 Alpha  occ. eigenvalues --  -14.84210 -10.67101 -10.66296  -1.04029  -0.89191
 Alpha  occ. eigenvalues --   -0.59447  -0.54730  -0.53410  -0.44748  -0.39153
 Alpha  occ. eigenvalues --   -0.38988
 Alpha virt. eigenvalues --    0.03751   0.07812   0.08259   0.10185   0.11265
 Alpha virt. eigenvalues --    0.11483   0.15323   0.16084   0.16434   0.20057
 Alpha virt. eigenvalues --    0.20121   0.25174   0.32566   0.34248   0.35138

 Mulliken charges:
               1
     1  C   -0.085889
     2  C   -0.002227
     3  N   -0.206821
     4  H    0.100350
     5  H    0.099713
     6  H    0.094875
 Sum of Mulliken charges =   0.00000

 Dipole moment (field-independent basis, Debye):
    X=             -4.1295    Y=             -0.0104    Z=             -0.0082  Tot=              4.1296
 Quadrupole moment (field-independent basis, Debye-Ang):
   XX=            -21.0495   YY=            -17.7388   ZZ=            -17.7411
   XY=             -0.0448   XZ=             -0.0618   YZ=              0.0321

 Normal termination of Gaussian 09 at Thu Aug 27 00:12:56 2020.
