 Gaussian 09, Revision D.01,
 Gaussian 09:  ES64L-G09RevD.01 24-Apr-2013

 --------------------
 #p B2PLYPD3/Def2QZVP
 --------------------

 ------------
 cyanomethane
 ------------
 Symbolic Z-matrix:
 Charge =  0 Multiplicity = 1

                         Standard orientation:
 ---------------------------------------------------------------------
 Center     Atomic      Atomic             Coordinates (Angstroms)
 Number     Number       Type             X           Y           Z
 ---------------------------------------------------------------------
      1          6           0       -1.190512    0.004164   -0.003221
      2          6           0        0.275542   -0.023348   -0.001236
      3          7           0        1.439988    0.016816    0.000483
      4          1           0       -1.507600   -0.250772    0.980802
      5          1           0       -1.486226   -0.755023   -0.686094
      6          1           0       -1.596270    1.003189   -0.271343
 ---------------------------------------------------------------------

 SCF Done:  E(RB2PLYPD3) =  -132.532350026     A.U. after   12 cycles
 E2(B2PLYPD3) =    -0.1813056856D+00 E(B2PLYPD3) =    -0.13271365571186D+03

 The electronic state is 1-A.
 Alpha  occ. eigenvalues --  -14.84412 -10.66990 -10.66509  -1.03628  -0.89472
 Alpha  occ. eigenvalues --   -0.59210  -0.54875  -0.53935  -0.44716  -0.38836
 Alpha  occ. eigenvalues --   -0.38777
 Alpha virt. eigenvalues --    0.03725   0.07608   0.08405   0.10155   0.11179
 Alpha virt. eigenvalues --    0.11321   0.15258   0.15543   0.16644   0.20124
 Alpha virt. eigenvalues --    0.20187   0.25185   0.32535   0.34542   0.34835

 Mulliken charges:
               1
     1  C   -0.089199
     2  C   -0.001524
     3  N   -0.212149
     4  H    0.099893
     5  H    0.102522
     6  H    0.100456
 Sum of Mulliken charges =   0.00000

 Dipole moment (field-independent basis, Debye):
    X=             -4.1418    Y=             -0.0399    Z=              0.0163  Tot=              4.1420
 Quadrupole moment (field-independent basis, Debye-Ang):
   XX=            -21.1355   YY=            -17.6597   ZZ=            -17.8121
   XY=             -0.1370   XZ=             -0.0367   YZ=              0.0241

 Normal termination of Gaussian 09 at Wed Aug 26 10:44:59 2020.
