 Gaussian 09, Revision D.01,
 Gaussian 09:  ES64L-G09RevD.01 24-Apr-2013

 --------------------
 #p B2PLYPD3/Def2QZVP
 --------------------

 ------------
 cyanomethane
 ------------
 Symbolic Z-matrix:
 Charge =  0 Multiplicity = 1

                         Standard orientation:
 ---------------------------------------------------------------------
 Center     Atomic      Atomic             Coordinates (Angstroms)
 Number     Number       Type             X           Y           Z
 ---------------------------------------------------------------------
      1          6           0        1.178552    0.010596   -0.001647
      2          6           0       -0.273899    0.000678   -0.022457
      3          7           0       -1.438990   -0.003389    0.009727
      4          1           0        1.524723    1.025340   -0.036109
      5          1           0        1.587802   -0.590956   -0.810712
      6          1           0        1.532490   -0.478304    0.923354
 ---------------------------------------------------------------------

 SCF Done:  E(RB2PLYPD3) =  -132.533797637     A.U. after   11 cycles
 E2(B2PLYPD3) =    -0.1814302485D+00 E(B2PLYPD3) =    -0.13271522788557D+03

 The electronic state is 1-A.
 Alpha  occ. eigenvalues --  -14.84488 -10.67099 -10.66558  -1.03685  -0.89379
 Alpha  occ. eigenvalues --   -0.59853  -0.54891  -0.53149  -0.44823  -0.38890
 Alpha  occ. eigenvalues --   -0.38644
 Alpha virt. eigenvalues --    0.03733   0.07525   0.07886   0.10157   0.11171
 Alpha virt. eigenvalues --    0.11541   0.15377   0.16121   0.16427   0.20085
 Alpha virt. eigenvalues --    0.20196   0.25430   0.32643   0.34107   0.35099

 Mulliken charges:
               1
     1  C   -0.082331
     2  C    0.000518
     3  N   -0.211533
     4  H    0.102301
     5  H    0.096039
     6  H    0.095006
 Sum of Mulliken charges =   0.00000

 Dipole moment (field-independent basis, Debye):
    X=              4.1449    Y=             -0.0132    Z=             -0.0021  Tot=              4.1449
 Quadrupole moment (field-independent basis, Debye-Ang):
   XX=            -21.0179   YY=            -17.6531   ZZ=            -17.9081
   XY=             -0.1007   XZ=              0.0423   YZ=              0.0119

 Normal termination of Gaussian 09 at Wed Aug 26 10:54:03 2020.
