 Gaussian 09, Revision D.01,
 Gaussian 09:  ES64L-G09RevD.01 24-Apr-2013

 --------------------
 #p B2PLYPD3/Def2QZVP
 --------------------

 ------------
 cyanomethane
 ------------
 Symbolic Z-matrix:
 Charge =  0 Multiplicity = 1

                         Standard orientation:
 ---------------------------------------------------------------------
 Center     Atomic      Atomic             Coordinates (Angstroms)
 Number     Number       Type             X           Y           Z
 ---------------------------------------------------------------------
      1          6           0        1.180391    0.003671    0.003485
      2          6           0       -0.279043    0.000699   -0.017551
      3          7           0       -1.429192    0.000825    0.012431
      4          1           0        1.574566   -0.261639    0.980030
      5          1           0        1.538684    0.984795   -0.279156
      6          1           0        1.483005   -0.755155   -0.703500
 ---------------------------------------------------------------------

 SCF Done:  E(RB2PLYPD3) =  -132.535324969     A.U. after   12 cycles
 E2(B2PLYPD3) =    -0.1800382007D+00 E(B2PLYPD3) =    -0.13271536316991D+03

 The electronic state is 1-A.
 Alpha  occ. eigenvalues --  -14.83998 -10.66947 -10.66052  -1.04226  -0.89390
 Alpha  occ. eigenvalues --   -0.59400  -0.54641  -0.53802  -0.44693  -0.39179
 Alpha  occ. eigenvalues --   -0.39078
 Alpha virt. eigenvalues --    0.03793   0.07933   0.08380   0.10184   0.11405
 Alpha virt. eigenvalues --    0.11543   0.15379   0.15828   0.16632   0.20064
 Alpha virt. eigenvalues --    0.20114   0.25314   0.32827   0.34514   0.34873

 Mulliken charges:
               1
     1  C   -0.088661
     2  C   -0.003327
     3  N   -0.204987
     4  H    0.097292
     5  H    0.100248
     6  H    0.099435
 Sum of Mulliken charges =   0.00000

 Dipole moment (field-independent basis, Debye):
    X=              4.1159    Y=             -0.0120    Z=             -0.0164  Tot=              4.1159
 Quadrupole moment (field-independent basis, Debye-Ang):
   XX=            -21.0961   YY=            -17.6305   ZZ=            -17.7620
   XY=              0.0065   XZ=              0.1381   YZ=              0.0023

 Normal termination of Gaussian 09 at Thu Aug 27 00:08:13 2020.
