 Gaussian 09, Revision D.01,
 Gaussian 09:  ES64L-G09RevD.01 24-Apr-2013

 --------------------
 #p B2PLYPD3/Def2QZVP
 --------------------

 ------------
 cyanomethane
 ------------
 Symbolic Z-matrix:
 Charge =  0 Multiplicity = 1

                         Standard orientation:
 ---------------------------------------------------------------------
 Center     Atomic      Atomic             Coordinates (Angstroms)
 Number     Number       Type             X           Y           Z
 ---------------------------------------------------------------------
      1          6           0       -1.170248    0.003795   -0.007362
      2          6           0        0.249283   -0.001586    0.084808
      3          7           0        1.430814    0.003148   -0.041351
      4          1           0       -1.511399   -0.105290    0.941305
      5          1           0       -1.458929   -0.911373   -0.632272
      6          1           0       -1.519575    0.981375   -0.484259
 ---------------------------------------------------------------------

 SCF Done:  E(RB2PLYPD3) =  -132.519301111     A.U. after   12 cycles
 E2(B2PLYPD3) =    -0.1838063990D+00 E(B2PLYPD3) =    -0.13270310751046D+03

 The electronic state is 1-A.
 Alpha  occ. eigenvalues --  -14.84932 -10.67191 -10.66873  -1.02864  -0.90044
 Alpha  occ. eigenvalues --   -0.59462  -0.55290  -0.53547  -0.44785  -0.38065
 Alpha  occ. eigenvalues --   -0.37857
 Alpha virt. eigenvalues --    0.03210   0.06439   0.08129   0.09987   0.10947
 Alpha virt. eigenvalues --    0.11434   0.14981   0.15566   0.16385   0.20160
 Alpha virt. eigenvalues --    0.20324   0.26149   0.32704   0.33388   0.34179

 Mulliken charges:
               1
     1  C   -0.103568
     2  C    0.007036
     3  N   -0.223317
     4  H    0.107350
     5  H    0.105414
     6  H    0.107085
 Sum of Mulliken charges =   0.00000

 Dipole moment (field-independent basis, Debye):
    X=             -4.1122    Y=             -0.0150    Z=              0.0679  Tot=              4.1128
 Quadrupole moment (field-independent basis, Debye-Ang):
   XX=            -21.3887   YY=            -17.6165   ZZ=            -17.8414
   XY=             -0.0352   XZ=              0.1053   YZ=             -0.0242

 Normal termination of Gaussian 09 at Wed Aug 26 22:36:14 2020.
