 Gaussian 09, Revision D.01,
 Gaussian 09:  ES64L-G09RevD.01 24-Apr-2013

 --------------------
 #p B2PLYPD3/Def2QZVP
 --------------------

 ------------
 cyanomethane
 ------------
 Symbolic Z-matrix:
 Charge =  0 Multiplicity = 1

                         Standard orientation:
 ---------------------------------------------------------------------
 Center     Atomic      Atomic             Coordinates (Angstroms)
 Number     Number       Type             X           Y           Z
 ---------------------------------------------------------------------
      1          6           0        1.170273   -0.043723   -0.026973
      2          6           0       -0.251354    0.072317    0.034153
      3          7           0       -1.434342   -0.024112   -0.008907
      4          1           0        1.589131   -0.047766    0.982551
      5          1           0        1.569753    0.933536   -0.456832
      6          1           0        1.367997   -0.888551   -0.506447
 ---------------------------------------------------------------------

 SCF Done:  E(RB2PLYPD3) =  -132.517955652     A.U. after   12 cycles
 E2(B2PLYPD3) =    -0.1834871320D+00 E(B2PLYPD3) =    -0.13270144278413D+03

 The electronic state is 1-A.
 Alpha  occ. eigenvalues --  -14.84966 -10.66942 -10.66512  -1.02931  -0.90422
 Alpha  occ. eigenvalues --   -0.60071  -0.57168  -0.52602  -0.44824  -0.38323
 Alpha  occ. eigenvalues --   -0.37817
 Alpha virt. eigenvalues --    0.03706   0.06965   0.07378   0.09990   0.11152
 Alpha virt. eigenvalues --    0.11400   0.15173   0.15706   0.16405   0.20081
 Alpha virt. eigenvalues --    0.20352   0.26319   0.32204   0.33258   0.35995

 Mulliken charges:
               1
     1  C   -0.086298
     2  C    0.006397
     3  N   -0.224002
     4  H    0.091738
     5  H    0.096637
     6  H    0.115528
 Sum of Mulliken charges =   0.00000

 Dipole moment (field-independent basis, Debye):
    X=              4.1370    Y=              0.0307    Z=              0.0519  Tot=              4.1375
 Quadrupole moment (field-independent basis, Debye-Ang):
   XX=            -21.1824   YY=            -17.5386   ZZ=            -17.9939
   XY=              0.0704   XZ=              0.1780   YZ=              0.1140

 Normal termination of Gaussian 09 at Wed Aug 26 22:54:27 2020.
