 Gaussian 09, Revision D.01,
 Gaussian 09:  ES64L-G09RevD.01 24-Apr-2013

 --------------------
 #p B2PLYPD3/Def2QZVP
 --------------------

 ------------
 cyanomethane
 ------------
 Symbolic Z-matrix:
 Charge =  0 Multiplicity = 1

                         Standard orientation:
 ---------------------------------------------------------------------
 Center     Atomic      Atomic             Coordinates (Angstroms)
 Number     Number       Type             X           Y           Z
 ---------------------------------------------------------------------
      1          6           0       -1.169154   -0.012196   -0.002327
      2          6           0        0.271667    0.014164   -0.014604
      3          7           0        1.432976   -0.003959    0.005424
      4          1           0       -1.542110   -0.873771   -0.523219
      5          1           0       -1.589538    0.918884   -0.462838
      6          1           0       -1.514267   -0.029208    1.049672
 ---------------------------------------------------------------------

 SCF Done:  E(RB2PLYPD3) =  -132.533700912     A.U. after   11 cycles
 E2(B2PLYPD3) =    -0.1812331485D+00 E(B2PLYPD3) =    -0.13271493406058D+03

 The electronic state is 1-A.
 Alpha  occ. eigenvalues --  -14.84370 -10.67316 -10.66397  -1.03873  -0.89308
 Alpha  occ. eigenvalues --   -0.59914  -0.54399  -0.53164  -0.44831  -0.38882
 Alpha  occ. eigenvalues --   -0.38681
 Alpha virt. eigenvalues --    0.03700   0.07394   0.07733   0.10130   0.11384
 Alpha virt. eigenvalues --    0.11606   0.15466   0.16107   0.16473   0.20102
 Alpha virt. eigenvalues --    0.20158   0.25643   0.32643   0.34013   0.34850

 Mulliken charges:
               1
     1  C   -0.086240
     2  C    0.000965
     3  N   -0.209607
     4  H    0.101902
     5  H    0.095070
     6  H    0.097909
 Sum of Mulliken charges =   0.00000

 Dipole moment (field-independent basis, Debye):
    X=             -4.1277    Y=              0.0037    Z=              0.0032  Tot=              4.1277
 Quadrupole moment (field-independent basis, Debye-Ang):
   XX=            -21.0450   YY=            -17.7483   ZZ=            -17.7941
   XY=             -0.0160   XZ=             -0.0126   YZ=              0.0467

 Normal termination of Gaussian 09 at Wed Aug 26 23:58:24 2020.
