 Gaussian 09, Revision D.01,
 Gaussian 09:  ES64L-G09RevD.01 24-Apr-2013

 --------------------
 #p B2PLYPD3/Def2QZVP
 --------------------

 ------------
 cyanomethane
 ------------
 Symbolic Z-matrix:
 Charge =  0 Multiplicity = 1

                         Standard orientation:
 ---------------------------------------------------------------------
 Center     Atomic      Atomic             Coordinates (Angstroms)
 Number     Number       Type             X           Y           Z
 ---------------------------------------------------------------------
      1          6           0       -1.175516    0.007361    0.007828
      2          6           0        0.294203   -0.023603   -0.032984
      3          7           0        1.429696    0.005546    0.014892
      4          1           0       -1.495636    1.064817   -0.131217
      5          1           0       -1.579851   -0.371549    0.938977
      6          1           0       -1.644510   -0.634637   -0.761070
 ---------------------------------------------------------------------

 SCF Done:  E(RB2PLYPD3) =  -132.534222825     A.U. after   12 cycles
 E2(B2PLYPD3) =    -0.1792047358D+00 E(B2PLYPD3) =    -0.13271342756114D+03

 The electronic state is 1-A.
 Alpha  occ. eigenvalues --  -14.83788 -10.67517 -10.65880  -1.04862  -0.88579
 Alpha  occ. eigenvalues --   -0.59790  -0.53675  -0.52760  -0.44792  -0.39591
 Alpha  occ. eigenvalues --   -0.39519
 Alpha virt. eigenvalues --    0.03680   0.07965   0.08088   0.10240   0.11615
 Alpha virt. eigenvalues --    0.11723   0.15301   0.16536   0.16781   0.19935
 Alpha virt. eigenvalues --    0.20029   0.25249   0.32660   0.34410   0.34663

 Mulliken charges:
               1
     1  C   -0.084556
     2  C   -0.002117
     3  N   -0.195704
     4  H    0.097832
     5  H    0.094137
     6  H    0.090409
 Sum of Mulliken charges =   0.00000

 Dipole moment (field-independent basis, Debye):
    X=             -4.1026    Y=             -0.0250    Z=             -0.0076  Tot=              4.1026
 Quadrupole moment (field-independent basis, Debye-Ang):
   XX=            -20.8756   YY=            -17.6236   ZZ=            -17.9063
   XY=              0.1161   XZ=             -0.0983   YZ=             -0.0263

 Normal termination of Gaussian 09 at Wed Aug 26 13:37:08 2020.
