 Gaussian 09, Revision D.01,
 Gaussian 09:  ES64L-G09RevD.01 24-Apr-2013

 --------------------
 #p B2PLYPD3/Def2QZVP
 --------------------

 ------------
 cyanomethane
 ------------
 Symbolic Z-matrix:
 Charge =  0 Multiplicity = 1

                         Standard orientation:
 ---------------------------------------------------------------------
 Center     Atomic      Atomic             Coordinates (Angstroms)
 Number     Number       Type             X           Y           Z
 ---------------------------------------------------------------------
      1          6           0        1.173824   -0.001265   -0.013618
      2          6           0       -0.280728   -0.019409    0.003562
      3          7           0       -1.431422    0.012123   -0.000309
      4          1           0        1.577221    1.020828   -0.150012
      5          1           0        1.537526   -0.642954   -0.740976
      6          1           0        1.546630   -0.338692    0.953487
 ---------------------------------------------------------------------

 SCF Done:  E(RB2PLYPD3) =  -132.533787476     A.U. after   12 cycles
 E2(B2PLYPD3) =    -0.1800577310D+00 E(B2PLYPD3) =    -0.13271384520743D+03

 The electronic state is 1-A.
 Alpha  occ. eigenvalues --  -14.84117 -10.66698 -10.66158  -1.04278  -0.89534
 Alpha  occ. eigenvalues --   -0.60095  -0.54955  -0.53188  -0.44809  -0.39299
 Alpha  occ. eigenvalues --   -0.39039
 Alpha virt. eigenvalues --    0.03778   0.07737   0.08422   0.10179   0.11327
 Alpha virt. eigenvalues --    0.11653   0.15487   0.16107   0.16834   0.20037
 Alpha virt. eigenvalues --    0.20123   0.25430   0.32871   0.34249   0.35331

 Mulliken charges:
               1
     1  C   -0.076651
     2  C   -0.001384
     3  N   -0.204585
     4  H    0.093777
     5  H    0.098249
     6  H    0.090594
 Sum of Mulliken charges =   0.00000

 Dipole moment (field-independent basis, Debye):
    X=              4.1275    Y=             -0.0298    Z=              0.0153  Tot=              4.1277
 Quadrupole moment (field-independent basis, Debye-Ang):
   XX=            -20.8976   YY=            -17.6912   ZZ=            -17.7963
   XY=              0.0708   XZ=              0.0386   YZ=              0.0612

 Normal termination of Gaussian 09 at Thu Aug 27 00:07:25 2020.
