 Gaussian 09, Revision D.01,
 Gaussian 09:  ES64L-G09RevD.01 24-Apr-2013

 --------------------
 #p B2PLYPD3/Def2QZVP
 --------------------

 ------------
 cyanomethane
 ------------
 Symbolic Z-matrix:
 Charge =  0 Multiplicity = 1

                         Standard orientation:
 ---------------------------------------------------------------------
 Center     Atomic      Atomic             Coordinates (Angstroms)
 Number     Number       Type             X           Y           Z
 ---------------------------------------------------------------------
      1          6           0        1.178922    0.004536   -0.000071
      2          6           0       -0.280640   -0.005037   -0.013392
      3          7           0       -1.438987    0.000757    0.006242
      4          1           0        1.542671    1.025766   -0.041255
      5          1           0        1.581030   -0.561678   -0.822875
      6          1           0        1.559518   -0.466382    0.901212
 ---------------------------------------------------------------------

 SCF Done:  E(RB2PLYPD3) =  -132.535253926     A.U. after   11 cycles
 E2(B2PLYPD3) =    -0.1807366382D+00 E(B2PLYPD3) =    -0.13271599056467D+03

 The electronic state is 1-A.
 Alpha  occ. eigenvalues --  -14.84354 -10.66940 -10.66435  -1.03978  -0.89311
 Alpha  occ. eigenvalues --   -0.60055  -0.54281  -0.53560  -0.44845  -0.39067
 Alpha  occ. eigenvalues --   -0.38972
 Alpha virt. eigenvalues --    0.03780   0.07819   0.07948   0.10184   0.11318
 Alpha virt. eigenvalues --    0.11481   0.15402   0.16368   0.16506   0.20073
 Alpha virt. eigenvalues --    0.20131   0.25313   0.32710   0.34627   0.34919

 Mulliken charges:
               1
     1  C   -0.076537
     2  C   -0.000191
     3  N   -0.207808
     4  H    0.097077
     5  H    0.093978
     6  H    0.093481
 Sum of Mulliken charges =   0.00000

 Dipole moment (field-independent basis, Debye):
    X=              4.1439    Y=             -0.0135    Z=             -0.0036  Tot=              4.1440
 Quadrupole moment (field-independent basis, Debye-Ang):
   XX=            -20.8991   YY=            -17.7071   ZZ=            -17.8638
   XY=             -0.0531   XZ=              0.0339   YZ=              0.0068

 Normal termination of Gaussian 09 at Thu Aug 27 00:13:57 2020.
