 Gaussian 09, Revision D.01,
 Gaussian 09:  ES64L-G09RevD.01 24-Apr-2013

 --------------------
 #p B2PLYPD3/Def2QZVP
 --------------------

 ------------
 cyanomethane
 ------------
 Symbolic Z-matrix:
 Charge =  0 Multiplicity = 1

                         Standard orientation:
 ---------------------------------------------------------------------
 Center     Atomic      Atomic             Coordinates (Angstroms)
 Number     Number       Type             X           Y           Z
 ---------------------------------------------------------------------
      1          6           0       -1.177355    0.003895   -0.013438
      2          6           0        0.279501    0.018893   -0.000310
      3          7           0        1.428085   -0.007391    0.003580
      4          1           0       -1.547292   -0.409278    0.953026
      5          1           0       -1.490115   -0.656075   -0.775221
      6          1           0       -1.572061    0.980360   -0.120380
 ---------------------------------------------------------------------

 SCF Done:  E(RB2PLYPD3) =  -132.534423756     A.U. after   11 cycles
 E2(B2PLYPD3) =    -0.1798083315D+00 E(B2PLYPD3) =    -0.13271423208714D+03

 The electronic state is 1-A.
 Alpha  occ. eigenvalues --  -14.83971 -10.66692 -10.66014  -1.04314  -0.89576
 Alpha  occ. eigenvalues --   -0.59663  -0.55367  -0.53291  -0.44716  -0.39336
 Alpha  occ. eigenvalues --   -0.39042
 Alpha virt. eigenvalues --    0.03810   0.07962   0.08486   0.10209   0.11306
 Alpha virt. eigenvalues --    0.11683   0.15428   0.16142   0.16497   0.20021
 Alpha virt. eigenvalues --    0.20129   0.25353   0.32823   0.34172   0.35508

 Mulliken charges:
               1
     1  C   -0.082813
     2  C   -0.003430
     3  N   -0.204130
     4  H    0.091367
     5  H    0.100219
     6  H    0.098787
 Sum of Mulliken charges =   0.00000

 Dipole moment (field-independent basis, Debye):
    X=             -4.1194    Y=             -0.0006    Z=             -0.0008  Tot=              4.1194
 Quadrupole moment (field-independent basis, Debye-Ang):
   XX=            -21.0165   YY=            -17.6273   ZZ=            -17.7698
   XY=              0.0181   XZ=             -0.0722   YZ=              0.0496

 Normal termination of Gaussian 09 at Thu Aug 27 00:23:53 2020.
