 Gaussian 09, Revision D.01,
 Gaussian 09:  ES64L-G09RevD.01 24-Apr-2013

 --------------------
 #p B2PLYPD3/Def2QZVP
 --------------------

 ------------
 cyanomethane
 ------------
 Symbolic Z-matrix:
 Charge =  0 Multiplicity = 1

                         Standard orientation:
 ---------------------------------------------------------------------
 Center     Atomic      Atomic             Coordinates (Angstroms)
 Number     Number       Type             X           Y           Z
 ---------------------------------------------------------------------
      1          6           0        1.178003   -0.002636    0.005463
      2          6           0       -0.274776    0.002403   -0.022903
      3          7           0       -1.440914    0.000572    0.009110
      4          1           0        1.585453    0.975599   -0.285042
      5          1           0        1.561851   -0.754650   -0.661517
      6          1           0        1.519735   -0.223557    0.987427
 ---------------------------------------------------------------------

 SCF Done:  E(RB2PLYPD3) =  -132.534009444     A.U. after   11 cycles
 E2(B2PLYPD3) =    -0.1813992165D+00 E(B2PLYPD3) =    -0.13271540866061D+03

 The electronic state is 1-A.
 Alpha  occ. eigenvalues --  -14.84561 -10.66809 -10.66627  -1.03671  -0.89547
 Alpha  occ. eigenvalues --   -0.60178  -0.54318  -0.53883  -0.44870  -0.38815
 Alpha  occ. eigenvalues --   -0.38787
 Alpha virt. eigenvalues --    0.03791   0.07620   0.07854   0.10155   0.11287
 Alpha virt. eigenvalues --    0.11384   0.15446   0.16262   0.16441   0.20127
 Alpha virt. eigenvalues --    0.20161   0.25443   0.32641   0.34690   0.34922

 Mulliken charges:
               1
     1  C   -0.075699
     2  C    0.001094
     3  N   -0.211831
     4  H    0.094155
     5  H    0.095383
     6  H    0.096899
 Sum of Mulliken charges =   0.00000

 Dipole moment (field-independent basis, Debye):
    X=              4.1523    Y=             -0.0103    Z=              0.0013  Tot=              4.1523
 Quadrupole moment (field-independent basis, Debye-Ang):
   XX=            -20.9194   YY=            -17.7640   ZZ=            -17.8254
   XY=              0.0086   XZ=              0.0391   YZ=              0.0061

 Normal termination of Gaussian 09 at Wed Aug 26 10:08:17 2020.
