 Gaussian 09, Revision D.01,
 Gaussian 09:  ES64L-G09RevD.01 24-Apr-2013

 --------------------
 #p B2PLYPD3/Def2QZVP
 --------------------

 ------------
 cyanomethane
 ------------
 Symbolic Z-matrix:
 Charge =  0 Multiplicity = 1

                         Standard orientation:
 ---------------------------------------------------------------------
 Center     Atomic      Atomic             Coordinates (Angstroms)
 Number     Number       Type             X           Y           Z
 ---------------------------------------------------------------------
      1          6           0        1.172836    0.003434   -0.006211
      2          6           0       -0.280460   -0.009795    0.012916
      3          7           0       -1.429075    0.007127   -0.009319
      4          1           0        1.597892    0.912978   -0.463543
      5          1           0        1.546524   -0.879734   -0.534908
      6          1           0        1.504857   -0.044966    1.023458
 ---------------------------------------------------------------------

 SCF Done:  E(RB2PLYPD3) =  -132.535318531     A.U. after   12 cycles
 E2(B2PLYPD3) =    -0.1800624003D+00 E(B2PLYPD3) =    -0.13271538093122D+03

 The electronic state is 1-A.
 Alpha  occ. eigenvalues --  -14.84024 -10.67182 -10.66067  -1.04348  -0.89186
 Alpha  occ. eigenvalues --   -0.59696  -0.53954  -0.53653  -0.44771  -0.39197
 Alpha  occ. eigenvalues --   -0.39118
 Alpha virt. eigenvalues --    0.03736   0.07704   0.08195   0.10168   0.11544
 Alpha virt. eigenvalues --    0.11586   0.15456   0.15889   0.16896   0.20072
 Alpha virt. eigenvalues --    0.20085   0.25452   0.32825   0.34429   0.34708

 Mulliken charges:
               1
     1  C   -0.086194
     2  C   -0.001829
     3  N   -0.203341
     4  H    0.097239
     5  H    0.097397
     6  H    0.096728
 Sum of Mulliken charges =   0.00000

 Dipole moment (field-independent basis, Debye):
    X=              4.1144    Y=             -0.0158    Z=              0.0304  Tot=              4.1146
 Quadrupole moment (field-independent basis, Debye-Ang):
   XX=            -21.0038   YY=            -17.6993   ZZ=            -17.7710
   XY=              0.0679   XZ=             -0.0682   YZ=              0.0058

 Normal termination of Gaussian 09 at Wed Aug 26 23:32:47 2020.
