 Gaussian 09, Revision D.01,
 Gaussian 09:  ES64L-G09RevD.01 24-Apr-2013

 --------------------
 #p B2PLYPD3/Def2QZVP
 --------------------

 ------------
 cyanomethane
 ------------
 Symbolic Z-matrix:
 Charge =  0 Multiplicity = 1

                         Standard orientation:
 ---------------------------------------------------------------------
 Center     Atomic      Atomic             Coordinates (Angstroms)
 Number     Number       Type             X           Y           Z
 ---------------------------------------------------------------------
      1          6           0        1.186310   -0.002388   -0.002386
      2          6           0       -0.281581   -0.016382    0.001940
      3          7           0       -1.437837    0.010254   -0.005005
      4          1           0        1.589871    0.924351   -0.471469
      5          1           0        1.559723   -0.870409   -0.516718
      6          1           0        1.486891   -0.013097    1.025895
 ---------------------------------------------------------------------

 SCF Done:  E(RB2PLYPD3) =  -132.534335479     A.U. after   12 cycles
 E2(B2PLYPD3) =    -0.1806259368D+00 E(B2PLYPD3) =    -0.13271496141533D+03

 The electronic state is 1-A.
 Alpha  occ. eigenvalues --  -14.84230 -10.67187 -10.66328  -1.03992  -0.89155
 Alpha  occ. eigenvalues --   -0.59361  -0.54575  -0.53483  -0.44746  -0.39102
 Alpha  occ. eigenvalues --   -0.38977
 Alpha virt. eigenvalues --    0.03728   0.07699   0.08319   0.10198   0.11276
 Alpha virt. eigenvalues --    0.11463   0.15304   0.15846   0.16665   0.20074
 Alpha virt. eigenvalues --    0.20129   0.25147   0.32555   0.34385   0.34929

 Mulliken charges:
               1
     1  C   -0.087408
     2  C   -0.002154
     3  N   -0.207245
     4  H    0.096785
     5  H    0.100248
     6  H    0.099775
 Sum of Mulliken charges =   0.00000

 Dipole moment (field-independent basis, Debye):
    X=              4.1333    Y=             -0.0160    Z=              0.0255  Tot=              4.1334
 Quadrupole moment (field-independent basis, Debye-Ang):
   XX=            -21.0542   YY=            -17.7147   ZZ=            -17.7794
   XY=              0.0791   XZ=             -0.0595   YZ=              0.0324

 Normal termination of Gaussian 09 at Wed Aug 26 09:33:07 2020.
