 Gaussian 09, Revision D.01,
 Gaussian 09:  ES64L-G09RevD.01 24-Apr-2013

 --------------------
 #p B2PLYPD3/Def2QZVP
 --------------------

 ------------
 cyanomethane
 ------------
 Symbolic Z-matrix:
 Charge =  0 Multiplicity = 1

                         Standard orientation:
 ---------------------------------------------------------------------
 Center     Atomic      Atomic             Coordinates (Angstroms)
 Number     Number       Type             X           Y           Z
 ---------------------------------------------------------------------
      1          6           0        1.170664   -0.002495   -0.005056
      2          6           0       -0.275168   -0.003463   -0.016751
      3          7           0       -1.433894    0.006212    0.011190
      4          1           0        1.502641   -0.565183   -0.822741
      5          1           0        1.552409   -0.464102    0.915437
      6          1           0        1.609233    1.021545   -0.040188
 ---------------------------------------------------------------------

 SCF Done:  E(RB2PLYPD3) =  -132.533182166     A.U. after   12 cycles
 E2(B2PLYPD3) =    -0.1808639995D+00 E(B2PLYPD3) =    -0.13271404616532D+03

 The electronic state is 1-A.
 Alpha  occ. eigenvalues --  -14.84341 -10.66905 -10.66372  -1.03986  -0.89532
 Alpha  occ. eigenvalues --   -0.60145  -0.54798  -0.53116  -0.44852  -0.39004
 Alpha  occ. eigenvalues --   -0.38836
 Alpha virt. eigenvalues --    0.03735   0.07353   0.08202   0.10148   0.11323
 Alpha virt. eigenvalues --    0.11609   0.15501   0.16087   0.16736   0.20070
 Alpha virt. eigenvalues --    0.20173   0.25564   0.32755   0.34304   0.35031

 Mulliken charges:
               1
     1  C   -0.078747
     2  C    0.000227
     3  N   -0.208343
     4  H    0.099373
     5  H    0.093698
     6  H    0.093792
 Sum of Mulliken charges =   0.00000

 Dipole moment (field-independent basis, Debye):
    X=              4.1345    Y=             -0.0247    Z=             -0.0125  Tot=              4.1346
 Quadrupole moment (field-independent basis, Debye-Ang):
   XX=            -20.9259   YY=            -17.7586   ZZ=            -17.7897
   XY=              0.0691   XZ=              0.1051   YZ=              0.0497

 Normal termination of Gaussian 09 at Wed Aug 26 10:03:06 2020.
