 Gaussian 09, Revision D.01,
 Gaussian 09:  ES64L-G09RevD.01 24-Apr-2013

 --------------------
 #p B2PLYPD3/Def2QZVP
 --------------------

 ------------
 cyanomethane
 ------------
 Symbolic Z-matrix:
 Charge =  0 Multiplicity = 1

                         Standard orientation:
 ---------------------------------------------------------------------
 Center     Atomic      Atomic             Coordinates (Angstroms)
 Number     Number       Type             X           Y           Z
 ---------------------------------------------------------------------
      1          6           0       -1.177766    0.009943   -0.011757
      2          6           0        0.290037   -0.008750   -0.005189
      3          7           0        1.437963    0.001633    0.001774
      4          1           0       -1.555786    1.030331   -0.014738
      5          1           0       -1.562495   -0.483938    0.917412
      6          1           0       -1.621085   -0.564980   -0.813417
 ---------------------------------------------------------------------

 SCF Done:  E(RB2PLYPD3) =  -132.534456060     A.U. after   12 cycles
 E2(B2PLYPD3) =    -0.1800779676D+00 E(B2PLYPD3) =    -0.13271453402808D+03

 The electronic state is 1-A.
 Alpha  occ. eigenvalues --  -14.84130 -10.67409 -10.66247  -1.04424  -0.88771
 Alpha  occ. eigenvalues --   -0.60018  -0.54166  -0.52524  -0.44861  -0.39447
 Alpha  occ. eigenvalues --   -0.39151
 Alpha virt. eigenvalues --    0.03703   0.07758   0.07989   0.10204   0.11367
 Alpha virt. eigenvalues --    0.11710   0.15357   0.16255   0.17046   0.20004
 Alpha virt. eigenvalues --    0.20090   0.25177   0.32605   0.33980   0.35197

 Mulliken charges:
               1
     1  C   -0.078812
     2  C   -0.000063
     3  N   -0.201674
     4  H    0.097577
     5  H    0.088663
     6  H    0.094310
 Sum of Mulliken charges =   0.00000

 Dipole moment (field-independent basis, Debye):
    X=             -4.1312    Y=             -0.0182    Z=              0.0095  Tot=              4.1313
 Quadrupole moment (field-independent basis, Debye-Ang):
   XX=            -20.8341   YY=            -17.6939   ZZ=            -17.9246
   XY=              0.0663   XZ=             -0.0074   YZ=              0.0379

 Normal termination of Gaussian 09 at Wed Aug 26 14:09:13 2020.
