 Gaussian 09, Revision D.01,
 Gaussian 09:  ES64L-G09RevD.01 24-Apr-2013

 --------------------
 #p B2PLYPD3/Def2QZVP
 --------------------

 ------------
 cyanomethane
 ------------
 Symbolic Z-matrix:
 Charge =  0 Multiplicity = 1

                         Standard orientation:
 ---------------------------------------------------------------------
 Center     Atomic      Atomic             Coordinates (Angstroms)
 Number     Number       Type             X           Y           Z
 ---------------------------------------------------------------------
      1          6           0       -1.185264    0.009375   -0.001219
      2          6           0        0.283339    0.016146    0.012967
      3          7           0        1.430544   -0.010406   -0.008225
      4          1           0       -1.558363   -0.769655   -0.675097
      5          1           0       -1.527745    0.930677   -0.308525
      6          1           0       -1.516147   -0.241309    0.970710
 ---------------------------------------------------------------------

 SCF Done:  E(RB2PLYPD3) =  -132.533354674     A.U. after   11 cycles
 E2(B2PLYPD3) =    -0.1795234431D+00 E(B2PLYPD3) =    -0.13271287811723D+03

 The electronic state is 1-A.
 Alpha  occ. eigenvalues --  -14.83943 -10.66333 -10.66002  -1.04332  -0.89748
 Alpha  occ. eigenvalues --   -0.59545  -0.55649  -0.53665  -0.44689  -0.39422
 Alpha  occ. eigenvalues --   -0.39188
 Alpha virt. eigenvalues --    0.03858   0.08176   0.08830   0.10229   0.11229
 Alpha virt. eigenvalues --    0.11561   0.15397   0.16102   0.16513   0.20022
 Alpha virt. eigenvalues --    0.20111   0.25140   0.32884   0.34526   0.35606

 Mulliken charges:
               1
     1  C   -0.078964
     2  C   -0.005100
     3  N   -0.203584
     4  H    0.092274
     5  H    0.099394
     6  H    0.095980
 Sum of Mulliken charges =   0.00000

 Dipole moment (field-independent basis, Debye):
    X=             -4.1260    Y=              0.0076    Z=              0.0182  Tot=              4.1260
 Quadrupole moment (field-independent basis, Debye-Ang):
   XX=            -20.9800   YY=            -17.6433   ZZ=            -17.7195
   XY=              0.0961   XZ=              0.0609   YZ=             -0.0584

 Normal termination of Gaussian 09 at Thu Aug 27 00:01:48 2020.
