 Gaussian 09, Revision D.01,
 Gaussian 09:  ES64L-G09RevD.01 24-Apr-2013

 --------------------
 #p B2PLYPD3/Def2QZVP
 --------------------

 ------------
 cyanomethane
 ------------
 Symbolic Z-matrix:
 Charge =  0 Multiplicity = 1

                         Standard orientation:
 ---------------------------------------------------------------------
 Center     Atomic      Atomic             Coordinates (Angstroms)
 Number     Number       Type             X           Y           Z
 ---------------------------------------------------------------------
      1          6           0       -1.146466    0.000078    0.011916
      2          6           0        0.282047   -0.035579   -0.033924
      3          7           0        1.418973    0.016793    0.007168
      4          1           0       -1.568960    1.063126   -0.088140
      5          1           0       -1.467509   -0.382123    0.910241
      6          1           0       -1.709829   -0.585544   -0.740233
 ---------------------------------------------------------------------

 SCF Done:  E(RB2PLYPD3) =  -132.528546121     A.U. after   12 cycles
 E2(B2PLYPD3) =    -0.1794361703D+00 E(B2PLYPD3) =    -0.13270798229115D+03

 The electronic state is 1-A.
 Alpha  occ. eigenvalues --  -14.83890 -10.66812 -10.65854  -1.04945  -0.89550
 Alpha  occ. eigenvalues --   -0.61158  -0.54279  -0.52306  -0.44936  -0.39465
 Alpha  occ. eigenvalues --   -0.39257
 Alpha virt. eigenvalues --    0.03644   0.07233   0.08272   0.10209   0.11779
 Alpha virt. eigenvalues --    0.11952   0.15630   0.16522   0.17283   0.19996
 Alpha virt. eigenvalues --    0.20068   0.26017   0.32778   0.33918   0.35458

 Mulliken charges:
               1
     1  C   -0.072144
     2  C    0.004004
     3  N   -0.197793
     4  H    0.087701
     5  H    0.094994
     6  H    0.083237
 Sum of Mulliken charges =   0.00000

 Dipole moment (field-independent basis, Debye):
    X=             -4.1010    Y=             -0.0527    Z=              0.0219  Tot=              4.1014
 Quadrupole moment (field-independent basis, Debye-Ang):
   XX=            -20.6329   YY=            -17.7085   ZZ=            -17.8900
   XY=             -0.0147   XZ=              0.0338   YZ=             -0.0681

 Normal termination of Gaussian 09 at Wed Aug 26 23:23:53 2020.
