 Gaussian 09, Revision D.01,
 Gaussian 09:  ES64L-G09RevD.01 24-Apr-2013

 --------------------
 #p B2PLYPD3/Def2QZVP
 --------------------

 ------------
 cyanomethane
 ------------
 Symbolic Z-matrix:
 Charge =  0 Multiplicity = 1

                         Standard orientation:
 ---------------------------------------------------------------------
 Center     Atomic      Atomic             Coordinates (Angstroms)
 Number     Number       Type             X           Y           Z
 ---------------------------------------------------------------------
      1          6           0        1.188039    0.025048    0.020221
      2          6           0       -0.268254   -0.000978   -0.043086
      3          7           0       -1.430113   -0.009439    0.010857
      4          1           0        1.412143    0.994590   -0.091832
      5          1           0        1.668636   -0.640762   -0.742553
      6          1           0        1.411300   -0.432169    0.895574
 ---------------------------------------------------------------------

 SCF Done:  E(RB2PLYPD3) =  -132.520548644     A.U. after   12 cycles
 E2(B2PLYPD3) =    -0.1808634950D+00 E(B2PLYPD3) =    -0.13270141213918D+03

 The electronic state is 1-A.
 Alpha  occ. eigenvalues --  -14.84241 -10.66303 -10.65843  -1.03733  -0.90690
 Alpha  occ. eigenvalues --   -0.59394  -0.57928  -0.53126  -0.44618  -0.39026
 Alpha  occ. eigenvalues --   -0.38599
 Alpha virt. eigenvalues --    0.03898   0.07645   0.09083   0.10244   0.10886
 Alpha virt. eigenvalues --    0.11616   0.15150   0.15651   0.16402   0.20072
 Alpha virt. eigenvalues --    0.20234   0.25373   0.32188   0.34702   0.36183

 Mulliken charges:
               1
     1  C   -0.084571
     2  C   -0.003192
     3  N   -0.213996
     4  H    0.110360
     5  H    0.087441
     6  H    0.103958
 Sum of Mulliken charges =   0.00000

 Dipole moment (field-independent basis, Debye):
    X=              4.1335    Y=             -0.0190    Z=              0.0140  Tot=              4.1336
 Quadrupole moment (field-independent basis, Debye-Ang):
   XX=            -21.1264   YY=            -17.4410   ZZ=            -17.8925
   XY=             -0.2640   XZ=             -0.0461   YZ=             -0.1124

 Normal termination of Gaussian 09 at Wed Aug 26 23:07:10 2020.
