 Gaussian 09, Revision D.01,
 Gaussian 09:  ES64L-G09RevD.01 24-Apr-2013

 --------------------
 #p B2PLYPD3/Def2QZVP
 --------------------

 ------------
 cyanomethane
 ------------
 Symbolic Z-matrix:
 Charge =  0 Multiplicity = 1

                         Standard orientation:
 ---------------------------------------------------------------------
 Center     Atomic      Atomic             Coordinates (Angstroms)
 Number     Number       Type             X           Y           Z
 ---------------------------------------------------------------------
      1          6           0        1.146974   -0.023450    0.002140
      2          6           0       -0.260363    0.035993   -0.056216
      3          7           0       -1.436536   -0.011452    0.030270
      4          1           0        1.639388    1.001380   -0.058127
      5          1           0        1.528811   -0.592293   -0.755205
      6          1           0        1.567888   -0.404178    0.925898
 ---------------------------------------------------------------------

 SCF Done:  E(RB2PLYPD3) =  -132.523689234     A.U. after   12 cycles
 E2(B2PLYPD3) =    -0.1829763599D+00 E(B2PLYPD3) =    -0.13270666559384D+03

 The electronic state is 1-A.
 Alpha  occ. eigenvalues --  -14.85073 -10.66975 -10.66364  -1.03392  -0.90242
 Alpha  occ. eigenvalues --   -0.61984  -0.55192  -0.52393  -0.45153  -0.38532
 Alpha  occ. eigenvalues --   -0.38141
 Alpha virt. eigenvalues --    0.03617   0.06329   0.07600   0.09933   0.11195
 Alpha virt. eigenvalues --    0.11771   0.15799   0.16347   0.16988   0.20132
 Alpha virt. eigenvalues --    0.20313   0.26428   0.32529   0.34491   0.35215

 Mulliken charges:
               1
     1  C   -0.058191
     2  C    0.009354
     3  N   -0.216541
     4  H    0.081609
     5  H    0.094657
     6  H    0.089113
 Sum of Mulliken charges =   0.00000

 Dipole moment (field-independent basis, Debye):
    X=              4.1556    Y=             -0.0064    Z=             -0.0235  Tot=              4.1557
 Quadrupole moment (field-independent basis, Debye-Ang):
   XX=            -20.6347   YY=            -17.9047   ZZ=            -17.8907
   XY=             -0.0202   XZ=              0.2141   YZ=              0.0886

 Normal termination of Gaussian 09 at Wed Aug 26 21:05:48 2020.
