 Gaussian 09, Revision D.01,
 Gaussian 09:  ES64L-G09RevD.01 24-Apr-2013

 --------------------
 #p B2PLYPD3/Def2QZVP
 --------------------

 ------------
 cyanomethane
 ------------
 Symbolic Z-matrix:
 Charge =  0 Multiplicity = 1

                         Standard orientation:
 ---------------------------------------------------------------------
 Center     Atomic      Atomic             Coordinates (Angstroms)
 Number     Number       Type             X           Y           Z
 ---------------------------------------------------------------------
      1          6           0        1.171917    0.001076   -0.006502
      2          6           0       -0.284300   -0.002602    0.019244
      3          7           0       -1.428034    0.001349   -0.010354
      4          1           0        1.559418    1.033766   -0.110832
      5          1           0        1.566093   -0.614793   -0.817337
      6          1           0        1.545025   -0.419262    0.924192
 ---------------------------------------------------------------------

 SCF Done:  E(RB2PLYPD3) =  -132.535830618     A.U. after   11 cycles
 E2(B2PLYPD3) =    -0.1796675939D+00 E(B2PLYPD3) =    -0.13271549821187D+03

 The electronic state is 1-A.
 Alpha  occ. eigenvalues --  -14.83918 -10.67243 -10.65959  -1.04550  -0.89030
 Alpha  occ. eigenvalues --   -0.59733  -0.53703  -0.53607  -0.44777  -0.39330
 Alpha  occ. eigenvalues --   -0.39278
 Alpha virt. eigenvalues --    0.03733   0.07855   0.08133   0.10183   0.11595
 Alpha virt. eigenvalues --    0.11633   0.15452   0.16166   0.16785   0.20028
 Alpha virt. eigenvalues --    0.20055   0.25412   0.32844   0.34473   0.34674

 Mulliken charges:
               1
     1  C   -0.084829
     2  C   -0.002558
     3  N   -0.200338
     4  H    0.096550
     5  H    0.096334
     6  H    0.094841
 Sum of Mulliken charges =   0.00000

 Dipole moment (field-independent basis, Debye):
    X=              4.1082    Y=             -0.0147    Z=              0.0231  Tot=              4.1083
 Quadrupole moment (field-independent basis, Debye-Ang):
   XX=            -20.9651   YY=            -17.6802   ZZ=            -17.7911
   XY=             -0.0213   XZ=             -0.0571   YZ=              0.0031

 Normal termination of Gaussian 09 at Wed Aug 26 23:59:26 2020.
