 Gaussian 09, Revision D.01,
 Gaussian 09:  ES64L-G09RevD.01 24-Apr-2013

 --------------------
 #p B2PLYPD3/Def2QZVP
 --------------------

 ------------
 cyanomethane
 ------------
 Symbolic Z-matrix:
 Charge =  0 Multiplicity = 1

                         Standard orientation:
 ---------------------------------------------------------------------
 Center     Atomic      Atomic             Coordinates (Angstroms)
 Number     Number       Type             X           Y           Z
 ---------------------------------------------------------------------
      1          6           0        1.179160   -0.004115   -0.035465
      2          6           0       -0.283766    0.005891   -0.042401
      3          7           0       -1.414755   -0.008887    0.038190
      4          1           0        1.691151   -0.129200    1.047680
      5          1           0        1.372573    1.010039   -0.307026
      6          1           0        1.467196   -0.829285   -0.540788
 ---------------------------------------------------------------------

 SCF Done:  E(RB2PLYPD3) =  -132.514349942     A.U. after   12 cycles
 E2(B2PLYPD3) =    -0.1792882758D+00 E(B2PLYPD3) =    -0.13269363821754D+03

 The electronic state is 1-A.
 Alpha  occ. eigenvalues --  -14.83486 -10.67230 -10.65480  -1.04902  -0.89523
 Alpha  occ. eigenvalues --   -0.59384  -0.57153  -0.50616  -0.44571  -0.39823
 Alpha  occ. eigenvalues --   -0.38886
 Alpha virt. eigenvalues --    0.03315   0.07079   0.09403   0.10269   0.11379
 Alpha virt. eigenvalues --    0.12045   0.15153   0.15751   0.16914   0.19907
 Alpha virt. eigenvalues --    0.20122   0.25221   0.31482   0.33471   0.36265

 Mulliken charges:
               1
     1  C   -0.099587
     2  C   -0.007033
     3  N   -0.196081
     4  H    0.081028
     5  H    0.110881
     6  H    0.110791
 Sum of Mulliken charges =   0.00000

 Dipole moment (field-independent basis, Debye):
    X=              4.0452    Y=              0.0188    Z=             -0.0502  Tot=              4.0455
 Quadrupole moment (field-independent basis, Debye-Ang):
   XX=            -21.2507   YY=            -17.2841   ZZ=            -18.0137
   XY=             -0.1701   XZ=              0.4725   YZ=              0.0954

 Normal termination of Gaussian 09 at Wed Aug 26 22:53:12 2020.
