 Gaussian 09, Revision D.01,
 Gaussian 09:  ES64L-G09RevD.01 24-Apr-2013

 --------------------
 #p B2PLYPD3/Def2QZVP
 --------------------

 ------------
 cyanomethane
 ------------
 Symbolic Z-matrix:
 Charge =  0 Multiplicity = 1

                         Standard orientation:
 ---------------------------------------------------------------------
 Center     Atomic      Atomic             Coordinates (Angstroms)
 Number     Number       Type             X           Y           Z
 ---------------------------------------------------------------------
      1          6           0        1.147472    0.010709   -0.012440
      2          6           0       -0.266557   -0.049412    0.048387
      3          7           0       -1.434094    0.018648   -0.020212
      4          1           0        1.664959   -0.394283    0.898817
      5          1           0        1.498596    1.071097   -0.113862
      6          1           0        1.589610   -0.575131   -0.859159
 ---------------------------------------------------------------------

 SCF Done:  E(RB2PLYPD3) =  -132.528558712     A.U. after   12 cycles
 E2(B2PLYPD3) =    -0.1826379605D+00 E(B2PLYPD3) =    -0.13271119667298D+03

 The electronic state is 1-A.
 Alpha  occ. eigenvalues --  -14.84831 -10.67665 -10.66763  -1.03691  -0.89165
 Alpha  occ. eigenvalues --   -0.60965  -0.53306  -0.52622  -0.45097  -0.38506
 Alpha  occ. eigenvalues --   -0.38428
 Alpha virt. eigenvalues --    0.03485   0.06717   0.06775   0.10019   0.11581
 Alpha virt. eigenvalues --    0.11645   0.15593   0.16357   0.16859   0.20079
 Alpha virt. eigenvalues --    0.20200   0.26314   0.32632   0.34175   0.34214

 Mulliken charges:
               1
     1  C   -0.077151
     2  C    0.008660
     3  N   -0.211936
     4  H    0.088430
     5  H    0.097667
     6  H    0.094329
 Sum of Mulliken charges =   0.00000

 Dipole moment (field-independent basis, Debye):
    X=              4.1282    Y=             -0.0186    Z=              0.0233  Tot=              4.1283
 Quadrupole moment (field-independent basis, Debye-Ang):
   XX=            -20.7945   YY=            -17.8342   ZZ=            -17.9772
   XY=              0.0061   XZ=             -0.0524   YZ=              0.0297

 Normal termination of Gaussian 09 at Wed Aug 26 19:10:55 2020.
