 Gaussian 09, Revision D.01,
 Gaussian 09:  ES64L-G09RevD.01 24-Apr-2013

 --------------------
 #p B2PLYPD3/Def2QZVP
 --------------------

 ------------
 cyanomethane
 ------------
 Symbolic Z-matrix:
 Charge =  0 Multiplicity = 1

                         Standard orientation:
 ---------------------------------------------------------------------
 Center     Atomic      Atomic             Coordinates (Angstroms)
 Number     Number       Type             X           Y           Z
 ---------------------------------------------------------------------
      1          6           0       -1.179291    0.005240   -0.001547
      2          6           0        0.279126   -0.001040   -0.006580
      3          7           0        1.439647    0.001104    0.002208
      4          1           0       -1.563858   -0.668563   -0.765732
      5          1           0       -1.577458    0.994310   -0.166560
      6          1           0       -1.535219   -0.358674    0.965603
 ---------------------------------------------------------------------

 SCF Done:  E(RB2PLYPD3) =  -132.535138871     A.U. after   12 cycles
 E2(B2PLYPD3) =    -0.1809610995D+00 E(B2PLYPD3) =    -0.13271609997070D+03

 The electronic state is 1-A.
 Alpha  occ. eigenvalues --  -14.84397 -10.67081 -10.66482  -1.03891  -0.89250
 Alpha  occ. eigenvalues --   -0.59953  -0.54117  -0.53648  -0.44840  -0.39001
 Alpha  occ. eigenvalues --   -0.38893
 Alpha virt. eigenvalues --    0.03763   0.07801   0.07809   0.10174   0.11331
 Alpha virt. eigenvalues --    0.11452   0.15397   0.16185   0.16582   0.20102
 Alpha virt. eigenvalues --    0.20129   0.25319   0.32654   0.34447   0.34922

 Mulliken charges:
               1
     1  C   -0.079653
     2  C    0.000065
     3  N   -0.208768
     4  H    0.095564
     5  H    0.097372
     6  H    0.095420
 Sum of Mulliken charges =   0.00000

 Dipole moment (field-independent basis, Debye):
    X=             -4.1441    Y=             -0.0079    Z=              0.0024  Tot=              4.1441
 Quadrupole moment (field-independent basis, Debye-Ang):
   XX=            -20.9419   YY=            -17.7591   ZZ=            -17.8167
   XY=             -0.0086   XZ=             -0.0012   YZ=             -0.0015

 Normal termination of Gaussian 09 at Wed Aug 26 17:28:54 2020.
