 Gaussian 09, Revision D.01,
 Gaussian 09:  ES64L-G09RevD.01 24-Apr-2013

 --------------------
 #p B2PLYPD3/Def2QZVP
 --------------------

 ------------
 cyanomethane
 ------------
 Symbolic Z-matrix:
 Charge =  0 Multiplicity = 1

                         Standard orientation:
 ---------------------------------------------------------------------
 Center     Atomic      Atomic             Coordinates (Angstroms)
 Number     Number       Type             X           Y           Z
 ---------------------------------------------------------------------
      1          6           0       -1.179442    0.015312   -0.012833
      2          6           0        0.264493    0.019520    0.010695
      3          7           0        1.431576   -0.015531   -0.000043
      4          1           0       -1.458436    1.032179   -0.013887
      5          1           0       -1.584350   -0.549790    0.912356
      6          1           0       -1.488553   -0.582667   -0.885343
 ---------------------------------------------------------------------

 SCF Done:  E(RB2PLYPD3) =  -132.528147966     A.U. after   12 cycles
 E2(B2PLYPD3) =    -0.1818701718D+00 E(B2PLYPD3) =    -0.13271001813831D+03

 The electronic state is 1-A.
 Alpha  occ. eigenvalues --  -14.84371 -10.67543 -10.66413  -1.03540  -0.89460
 Alpha  occ. eigenvalues --   -0.58852  -0.55928  -0.52579  -0.44670  -0.38714
 Alpha  occ. eigenvalues --   -0.38335
 Alpha virt. eigenvalues --    0.03587   0.07018   0.08218   0.10119   0.11083
 Alpha virt. eigenvalues --    0.11665   0.15208   0.15801   0.16006   0.20103
 Alpha virt. eigenvalues --    0.20250   0.25492   0.32207   0.33483   0.35058

 Mulliken charges:
               1
     1  C   -0.101146
     2  C   -0.000058
     3  N   -0.214192
     4  H    0.112143
     5  H    0.096897
     6  H    0.106356
 Sum of Mulliken charges =   0.00000

 Dipole moment (field-independent basis, Debye):
    X=             -4.1145    Y=              0.0037    Z=             -0.0072  Tot=              4.1145
 Quadrupole moment (field-independent basis, Debye-Ang):
   XX=            -21.3722   YY=            -17.5541   ZZ=            -17.8634
   XY=              0.1948   XZ=             -0.0651   YZ=              0.0518

 Normal termination of Gaussian 09 at Wed Aug 26 10:39:31 2020.
