 Gaussian 09, Revision D.01,
 Gaussian 09:  ES64L-G09RevD.01 24-Apr-2013

 --------------------
 #p B2PLYPD3/Def2QZVP
 --------------------

 ------------
 cyanomethane
 ------------
 Symbolic Z-matrix:
 Charge =  0 Multiplicity = 1

                         Standard orientation:
 ---------------------------------------------------------------------
 Center     Atomic      Atomic             Coordinates (Angstroms)
 Number     Number       Type             X           Y           Z
 ---------------------------------------------------------------------
      1          6           0        1.173313    0.007137   -0.001285
      2          6           0       -0.266606    0.018412    0.005958
      3          7           0       -1.431165   -0.006204    0.000302
      4          1           0        1.558503   -0.252693    0.972896
      5          1           0        1.564062    0.947682   -0.320710
      6          1           0        1.455352   -0.804859   -0.682338
 ---------------------------------------------------------------------

 SCF Done:  E(RB2PLYPD3) =  -132.533625970     A.U. after   12 cycles
 E2(B2PLYPD3) =    -0.1812481750D+00 E(B2PLYPD3) =    -0.13271487414528D+03

 The electronic state is 1-A.
 Alpha  occ. eigenvalues --  -14.84357 -10.66760 -10.66395  -1.03703  -0.89838
 Alpha  occ. eigenvalues --   -0.59890  -0.55017  -0.53826  -0.44753  -0.38812
 Alpha  occ. eigenvalues --   -0.38565
 Alpha virt. eigenvalues --    0.03793   0.07741   0.07921   0.10149   0.11244
 Alpha virt. eigenvalues --    0.11574   0.15422   0.15841   0.16476   0.20119
 Alpha virt. eigenvalues --    0.20216   0.25626   0.32839   0.34119   0.35137

 Mulliken charges:
               1
     1  C   -0.085363
     2  C    0.000111
     3  N   -0.212736
     4  H    0.097114
     5  H    0.101570
     6  H    0.099304
 Sum of Mulliken charges =   0.00000

 Dipole moment (field-independent basis, Debye):
    X=              4.1381    Y=             -0.0117    Z=              0.0036  Tot=              4.1381
 Quadrupole moment (field-independent basis, Debye-Ang):
   XX=            -21.1000   YY=            -17.6384   ZZ=            -17.8141
   XY=             -0.0064   XZ=              0.0718   YZ=             -0.0245

 Normal termination of Gaussian 09 at Wed Aug 26 14:49:44 2020.
