 Gaussian 09, Revision D.01,
 Gaussian 09:  ES64L-G09RevD.01 24-Apr-2013

 --------------------
 #p B2PLYPD3/Def2QZVP
 --------------------

 ------------
 cyanomethane
 ------------
 Symbolic Z-matrix:
 Charge =  0 Multiplicity = 1

                         Standard orientation:
 ---------------------------------------------------------------------
 Center     Atomic      Atomic             Coordinates (Angstroms)
 Number     Number       Type             X           Y           Z
 ---------------------------------------------------------------------
      1          6           0        1.203327    0.022661    0.030719
      2          6           0       -0.277899   -0.042243   -0.019719
      3          7           0       -1.441002    0.017091    0.002709
      4          1           0        1.492957    1.025426   -0.305812
      5          1           0        1.582538   -0.755732   -0.752481
      6          1           0        1.458954   -0.271835    0.973333
 ---------------------------------------------------------------------

 SCF Done:  E(RB2PLYPD3) =  -132.524831885     A.U. after   12 cycles
 E2(B2PLYPD3) =    -0.1815928971D+00 E(B2PLYPD3) =    -0.13270642478156D+03

 The electronic state is 1-A.
 Alpha  occ. eigenvalues --  -14.84336 -10.67672 -10.66461  -1.03558  -0.89042
 Alpha  occ. eigenvalues --   -0.58304  -0.56234  -0.52411  -0.44585  -0.38998
 Alpha  occ. eigenvalues --   -0.38536
 Alpha virt. eigenvalues --    0.03596   0.07357   0.08536   0.10131   0.10914
 Alpha virt. eigenvalues --    0.11428   0.14895   0.15508   0.16206   0.20093
 Alpha virt. eigenvalues --    0.20157   0.24963   0.31560   0.33451   0.35408

 Mulliken charges:
               1
     1  C   -0.104749
     2  C   -0.001461
     3  N   -0.212539
     4  H    0.111210
     5  H    0.093670
     6  H    0.113869
 Sum of Mulliken charges =   0.00000

 Dipole moment (field-independent basis, Debye):
    X=              4.1172    Y=             -0.0202    Z=             -0.0035  Tot=              4.1172
 Quadrupole moment (field-independent basis, Debye-Ang):
   XX=            -21.4091   YY=            -17.6985   ZZ=            -17.7167
   XY=              0.0338   XZ=             -0.0715   YZ=             -0.1365

 Normal termination of Gaussian 09 at Wed Aug 26 22:25:00 2020.
