 Gaussian 09, Revision D.01,
 Gaussian 09:  ES64L-G09RevD.01 24-Apr-2013

 --------------------
 #p B2PLYPD3/Def2QZVP
 --------------------

 ------------
 cyanomethane
 ------------
 Symbolic Z-matrix:
 Charge =  0 Multiplicity = 1

                         Standard orientation:
 ---------------------------------------------------------------------
 Center     Atomic      Atomic             Coordinates (Angstroms)
 Number     Number       Type             X           Y           Z
 ---------------------------------------------------------------------
      1          6           0        1.177345    0.003385    0.005829
      2          6           0       -0.267895   -0.019226   -0.013564
      3          7           0       -1.428705    0.014166    0.005227
      4          1           0        1.494893   -0.585418   -0.841707
      5          1           0        1.473810   -0.453630    0.924531
      6          1           0        1.575528    1.034929   -0.073007
 ---------------------------------------------------------------------

 SCF Done:  E(RB2PLYPD3) =  -132.533305037     A.U. after   12 cycles
 E2(B2PLYPD3) =    -0.1810182490D+00 E(B2PLYPD3) =    -0.13271432328583D+03

 The electronic state is 1-A.
 Alpha  occ. eigenvalues --  -14.84225 -10.66938 -10.66252  -1.03798  -0.89713
 Alpha  occ. eigenvalues --   -0.59264  -0.54935  -0.54044  -0.44684  -0.38783
 Alpha  occ. eigenvalues --   -0.38733
 Alpha virt. eigenvalues --    0.03750   0.07611   0.08278   0.10131   0.11381
 Alpha virt. eigenvalues --    0.11433   0.15414   0.15540   0.16484   0.20151
 Alpha virt. eigenvalues --    0.20164   0.25547   0.32785   0.34406   0.34708

 Mulliken charges:
               1
     1  C   -0.093161
     2  C   -0.001495
     3  N   -0.211382
     4  H    0.101389
     5  H    0.103889
     6  H    0.100761
 Sum of Mulliken charges =   0.00000

 Dipole moment (field-independent basis, Debye):
    X=              4.1191    Y=             -0.0317    Z=             -0.0062  Tot=              4.1192
 Quadrupole moment (field-independent basis, Debye-Ang):
   XX=            -21.2220   YY=            -17.6807   ZZ=            -17.6979
   XY=              0.1270   XZ=              0.0063   YZ=             -0.0113

 Normal termination of Gaussian 09 at Wed Aug 26 13:24:29 2020.
