 Gaussian 09, Revision D.01,
 Gaussian 09:  ES64L-G09RevD.01 24-Apr-2013

 --------------------
 #p B2PLYPD3/Def2QZVP
 --------------------

 ------------
 cyanomethane
 ------------
 Symbolic Z-matrix:
 Charge =  0 Multiplicity = 1

                         Standard orientation:
 ---------------------------------------------------------------------
 Center     Atomic      Atomic             Coordinates (Angstroms)
 Number     Number       Type             X           Y           Z
 ---------------------------------------------------------------------
      1          6           0        1.173069    0.001610   -0.011630
      2          6           0       -0.283278   -0.007798    0.021898
      3          7           0       -1.430136    0.003462   -0.009717
      4          1           0        1.550669    1.018701   -0.017972
      5          1           0        1.553983   -0.521586   -0.842901
      6          1           0        1.567556   -0.484230    0.867286
 ---------------------------------------------------------------------

 SCF Done:  E(RB2PLYPD3) =  -132.535422524     A.U. after   11 cycles
 E2(B2PLYPD3) =    -0.1796599050D+00 E(B2PLYPD3) =    -0.13271508242884D+03

 The electronic state is 1-A.
 Alpha  occ. eigenvalues --  -14.84028 -10.66538 -10.66068  -1.04436  -0.89548
 Alpha  occ. eigenvalues --   -0.60225  -0.54426  -0.53744  -0.44811  -0.39361
 Alpha  occ. eigenvalues --   -0.39236
 Alpha virt. eigenvalues --    0.03843   0.08123   0.08241   0.10188   0.11475
 Alpha virt. eigenvalues --    0.11567   0.15505   0.16258   0.16831   0.20054
 Alpha virt. eigenvalues --    0.20061   0.25424   0.32961   0.34685   0.35234

 Mulliken charges:
               1
     1  C   -0.072762
     2  C   -0.001784
     3  N   -0.202632
     4  H    0.093371
     5  H    0.094325
     6  H    0.089482
 Sum of Mulliken charges =   0.00000

 Dipole moment (field-independent basis, Debye):
    X=              4.1258    Y=             -0.0164    Z=              0.0189  Tot=              4.1259
 Quadrupole moment (field-independent basis, Debye-Ang):
   XX=            -20.8410   YY=            -17.6867   ZZ=            -17.7897
   XY=             -0.0155   XZ=             -0.0330   YZ=              0.0287

 Normal termination of Gaussian 09 at Wed Aug 26 09:39:06 2020.
