 Gaussian 09, Revision D.01,
 Gaussian 09:  ES64L-G09RevD.01 24-Apr-2013

 --------------------
 #p B2PLYPD3/Def2QZVP
 --------------------

 ------------
 cyanomethane
 ------------
 Symbolic Z-matrix:
 Charge =  0 Multiplicity = 1

                         Standard orientation:
 ---------------------------------------------------------------------
 Center     Atomic      Atomic             Coordinates (Angstroms)
 Number     Number       Type             X           Y           Z
 ---------------------------------------------------------------------
      1          6           0       -1.180963   -0.015098    0.004537
      2          6           0        0.284308    0.068944    0.007636
      3          7           0        1.407819   -0.015569   -0.002004
      4          1           0       -1.429762   -0.487917    0.911272
      5          1           0       -1.318820   -0.726779   -0.817726
      6          1           0       -1.726219    1.000602   -0.152555
 ---------------------------------------------------------------------

 SCF Done:  E(RB2PLYPD3) =  -132.526732793     A.U. after   12 cycles
 E2(B2PLYPD3) =    -0.1784998858D+00 E(B2PLYPD3) =    -0.13270523267840D+03

 The electronic state is 1-A.
 Alpha  occ. eigenvalues --  -14.83120 -10.67598 -10.65228  -1.05112  -0.89049
 Alpha  occ. eigenvalues --   -0.58023  -0.54474  -0.53609  -0.44412  -0.39690
 Alpha  occ. eigenvalues --   -0.39415
 Alpha virt. eigenvalues --    0.03663   0.07765   0.08982   0.10300   0.11719
 Alpha virt. eigenvalues --    0.12083   0.15082   0.15532   0.16682   0.19883
 Alpha virt. eigenvalues --    0.20120   0.25364   0.31935   0.34031   0.35160

 Mulliken charges:
               1
     1  C   -0.115398
     2  C   -0.009180
     3  N   -0.193128
     4  H    0.107726
     5  H    0.107948
     6  H    0.102032
 Sum of Mulliken charges =   0.00000

 Dipole moment (field-independent basis, Debye):
    X=             -4.0455    Y=             -0.0219    Z=              0.0096  Tot=              4.0456
 Quadrupole moment (field-independent basis, Debye-Ang):
   XX=            -21.3634   YY=            -17.4583   ZZ=            -17.7080
   XY=             -0.1338   XZ=             -0.0546   YZ=             -0.0196

 Normal termination of Gaussian 09 at Wed Aug 26 20:15:44 2020.
