 Gaussian 09, Revision D.01,
 Gaussian 09:  ES64L-G09RevD.01 24-Apr-2013

 --------------------
 #p B2PLYPD3/Def2QZVP
 --------------------

 ------------
 cyanomethane
 ------------
 Symbolic Z-matrix:
 Charge =  0 Multiplicity = 1

                         Standard orientation:
 ---------------------------------------------------------------------
 Center     Atomic      Atomic             Coordinates (Angstroms)
 Number     Number       Type             X           Y           Z
 ---------------------------------------------------------------------
      1          6           0        1.178496    0.022802    0.000309
      2          6           0       -0.272662   -0.002148   -0.037196
      3          7           0       -1.443955   -0.002893    0.016045
      4          1           0        1.541963    1.058849   -0.054137
      5          1           0        1.606114   -0.666374   -0.811087
      6          1           0        1.524600   -0.496146    0.974233
 ---------------------------------------------------------------------

 SCF Done:  E(RB2PLYPD3) =  -132.526697659     A.U. after   12 cycles
 E2(B2PLYPD3) =    -0.1827679696D+00 E(B2PLYPD3) =    -0.13270946562834D+03

 The electronic state is 1-A.
 Alpha  occ. eigenvalues --  -14.84708 -10.68500 -10.66807  -1.03419  -0.88472
 Alpha  occ. eigenvalues --   -0.59255  -0.54476  -0.51701  -0.44859  -0.38711
 Alpha  occ. eigenvalues --   -0.38235
 Alpha virt. eigenvalues --    0.03412   0.06705   0.07309   0.10099   0.11082
 Alpha virt. eigenvalues --    0.11690   0.15213   0.15775   0.16586   0.20060
 Alpha virt. eigenvalues --    0.20239   0.25463   0.32045   0.32891   0.34731

 Mulliken charges:
               1
     1  C   -0.099456
     2  C    0.004805
     3  N   -0.213175
     4  H    0.110823
     5  H    0.098295
     6  H    0.098708
 Sum of Mulliken charges =   0.00000

 Dipole moment (field-independent basis, Debye):
    X=              4.1314    Y=             -0.0223    Z=             -0.0031  Tot=              4.1315
 Quadrupole moment (field-independent basis, Debye-Ang):
   XX=            -21.2055   YY=            -17.6130   ZZ=            -18.0671
   XY=             -0.1193   XZ=              0.0720   YZ=             -0.0017

 Normal termination of Gaussian 09 at Wed Aug 26 10:30:45 2020.
