 Gaussian 09, Revision D.01,
 Gaussian 09:  ES64L-G09RevD.01 24-Apr-2013

 --------------------
 #p B2PLYPD3/Def2QZVP
 --------------------

 ------------
 cyanomethane
 ------------
 Symbolic Z-matrix:
 Charge =  0 Multiplicity = 1

                         Standard orientation:
 ---------------------------------------------------------------------
 Center     Atomic      Atomic             Coordinates (Angstroms)
 Number     Number       Type             X           Y           Z
 ---------------------------------------------------------------------
      1          6           0        1.182497    0.007412   -0.005187
      2          6           0       -0.283072    0.006646   -0.013170
      3          7           0       -1.432804   -0.008508    0.009686
      4          1           0        1.596109   -0.410899    0.927862
      5          1           0        1.482772    0.992176   -0.096420
      6          1           0        1.554197   -0.606074   -0.789104
 ---------------------------------------------------------------------

 SCF Done:  E(RB2PLYPD3) =  -132.533149953     A.U. after   12 cycles
 E2(B2PLYPD3) =    -0.1798179772D+00 E(B2PLYPD3) =    -0.13271296792985D+03

 The electronic state is 1-A.
 Alpha  occ. eigenvalues --  -14.84053 -10.66474 -10.66116  -1.04272  -0.89659
 Alpha  occ. eigenvalues --   -0.59743  -0.55567  -0.53290  -0.44744  -0.39351
 Alpha  occ. eigenvalues --   -0.39139
 Alpha virt. eigenvalues --    0.03830   0.07910   0.08740   0.10225   0.11240
 Alpha virt. eigenvalues --    0.11576   0.15392   0.16146   0.16633   0.20023
 Alpha virt. eigenvalues --    0.20128   0.25196   0.32797   0.34535   0.35521

 Mulliken charges:
               1
     1  C   -0.077505
     2  C   -0.003631
     3  N   -0.204427
     4  H    0.090332
     5  H    0.099943
     6  H    0.095288
 Sum of Mulliken charges =   0.00000

 Dipole moment (field-independent basis, Debye):
    X=              4.1311    Y=              0.0102    Z=             -0.0150  Tot=              4.1312
 Quadrupole moment (field-independent basis, Debye-Ang):
   XX=            -20.9287   YY=            -17.6342   ZZ=            -17.7993
   XY=             -0.1310   XZ=              0.0944   YZ=              0.0259

 Normal termination of Gaussian 09 at Wed Aug 26 11:55:28 2020.
