 Gaussian 09, Revision D.01,
 Gaussian 09:  ES64L-G09RevD.01 24-Apr-2013

 --------------------
 #p B2PLYPD3/Def2QZVP
 --------------------

 ------------
 cyanomethane
 ------------
 Symbolic Z-matrix:
 Charge =  0 Multiplicity = 1

                         Standard orientation:
 ---------------------------------------------------------------------
 Center     Atomic      Atomic             Coordinates (Angstroms)
 Number     Number       Type             X           Y           Z
 ---------------------------------------------------------------------
      1          6           0        1.181171   -0.011798   -0.011983
      2          6           0       -0.258254    0.041500    0.035515
      3          7           0       -1.446518   -0.006016   -0.009663
      4          1           0        1.575281   -0.347079    0.872945
      5          1           0        1.699608    0.923147   -0.233091
      6          1           0        1.313234   -0.712168   -0.713398
 ---------------------------------------------------------------------

 SCF Done:  E(RB2PLYPD3) =  -132.518132192     A.U. after   13 cycles
 E2(B2PLYPD3) =    -0.1832145141D+00 E(B2PLYPD3) =    -0.13270134670650D+03

 The electronic state is 1-A.
 Alpha  occ. eigenvalues --  -14.85103 -10.67258 -10.65553  -1.02848  -0.91023
 Alpha  occ. eigenvalues --   -0.60970  -0.56288  -0.54177  -0.44881  -0.38252
 Alpha  occ. eigenvalues --   -0.38188
 Alpha virt. eigenvalues --    0.03905   0.07078   0.08092   0.10272   0.11099
 Alpha virt. eigenvalues --    0.11247   0.15032   0.15841   0.16915   0.20242
 Alpha virt. eigenvalues --    0.20336   0.25762   0.32299   0.35119   0.35681

 Mulliken charges:
               1
     1  C   -0.071039
     2  C    0.006182
     3  N   -0.224529
     4  H    0.090576
     5  H    0.092534
     6  H    0.106276
 Sum of Mulliken charges =   0.00000

 Dipole moment (field-independent basis, Debye):
    X=              4.2045    Y=             -0.0380    Z=              0.0200  Tot=              4.2047
 Quadrupole moment (field-independent basis, Debye-Ang):
   XX=            -20.8060   YY=            -17.7453   ZZ=            -17.9083
   XY=              0.1324   XZ=              0.1251   YZ=              0.0577

 Normal termination of Gaussian 09 at Wed Aug 26 18:37:27 2020.
