 Gaussian 09, Revision D.01,
 Gaussian 09:  ES64L-G09RevD.01 24-Apr-2013

 --------------------
 #p B2PLYPD3/Def2QZVP
 --------------------

 ------------
 cyanomethane
 ------------
 Symbolic Z-matrix:
 Charge =  0 Multiplicity = 1

                         Standard orientation:
 ---------------------------------------------------------------------
 Center     Atomic      Atomic             Coordinates (Angstroms)
 Number     Number       Type             X           Y           Z
 ---------------------------------------------------------------------
      1          6           0        1.174707   -0.014174    0.006761
      2          6           0       -0.276312   -0.024498    0.015706
      3          7           0       -1.423422    0.019040   -0.011108
      4          1           0        1.595127    0.900490   -0.545612
      5          1           0        1.482191   -0.866977   -0.497527
      6          1           0        1.496271    0.065246    0.986090
 ---------------------------------------------------------------------

 SCF Done:  E(RB2PLYPD3) =  -132.529314003     A.U. after   12 cycles
 E2(B2PLYPD3) =    -0.1797862749D+00 E(B2PLYPD3) =    -0.13270910027808D+03

 The electronic state is 1-A.
 Alpha  occ. eigenvalues --  -14.83922 -10.66511 -10.65913  -1.04350  -0.89892
 Alpha  occ. eigenvalues --   -0.59510  -0.56439  -0.52737  -0.44694  -0.39363
 Alpha  occ. eigenvalues --   -0.38951
 Alpha virt. eigenvalues --    0.03689   0.07664   0.08947   0.10189   0.11238
 Alpha virt. eigenvalues --    0.11746   0.15482   0.15942   0.16546   0.20019
 Alpha virt. eigenvalues --    0.20144   0.25464   0.32651   0.34010   0.35799

 Mulliken charges:
               1
     1  C   -0.085261
     2  C   -0.004158
     3  N   -0.204143
     4  H    0.089192
     5  H    0.102986
     6  H    0.101384
 Sum of Mulliken charges =   0.00000

 Dipole moment (field-independent basis, Debye):
    X=              4.1029    Y=             -0.0300    Z=              0.0258  Tot=              4.1031
 Quadrupole moment (field-independent basis, Debye-Ang):
   XX=            -21.0682   YY=            -17.6833   ZZ=            -17.6545
   XY=              0.1933   XZ=             -0.0814   YZ=              0.1126

 Normal termination of Gaussian 09 at Wed Aug 26 10:34:35 2020.
