 Gaussian 09, Revision D.01,
 Gaussian 09:  ES64L-G09RevD.01 24-Apr-2013

 --------------------
 #p B2PLYPD3/Def2QZVP
 --------------------

 ------------
 cyanomethane
 ------------
 Symbolic Z-matrix:
 Charge =  0 Multiplicity = 1

                         Standard orientation:
 ---------------------------------------------------------------------
 Center     Atomic      Atomic             Coordinates (Angstroms)
 Number     Number       Type             X           Y           Z
 ---------------------------------------------------------------------
      1          6           0        1.175894    0.007774    0.006545
      2          6           0       -0.282536   -0.022266   -0.007663
      3          7           0       -1.437731    0.013816    0.004723
      4          1           0        1.602708    1.019803   -0.215394
      5          1           0        1.527308   -0.696501   -0.772713
      6          1           0        1.573952   -0.333060    0.961752
 ---------------------------------------------------------------------

 SCF Done:  E(RB2PLYPD3) =  -132.533785356     A.U. after   12 cycles
 E2(B2PLYPD3) =    -0.1808582093D+00 E(B2PLYPD3) =    -0.13271464356495D+03

 The electronic state is 1-A.
 Alpha  occ. eigenvalues --  -14.84306 -10.67626 -10.66388  -1.04105  -0.88797
 Alpha  occ. eigenvalues --   -0.59795  -0.53526  -0.53201  -0.44860  -0.39084
 Alpha  occ. eigenvalues --   -0.38967
 Alpha virt. eigenvalues --    0.03638   0.07408   0.07867   0.10139   0.11473
 Alpha virt. eigenvalues --    0.11519   0.15392   0.15936   0.16971   0.20071
 Alpha virt. eigenvalues --    0.20117   0.25384   0.32578   0.34105   0.34632

 Mulliken charges:
               1
     1  C   -0.086138
     2  C    0.001027
     3  N   -0.205674
     4  H    0.097414
     5  H    0.095612
     6  H    0.097760
 Sum of Mulliken charges =   0.00000

 Dipole moment (field-independent basis, Debye):
    X=              4.1259    Y=             -0.0345    Z=             -0.0060  Tot=              4.1260
 Quadrupole moment (field-independent basis, Debye-Ang):
   XX=            -20.9625   YY=            -17.7720   ZZ=            -17.8364
   XY=              0.0918   XZ=              0.0513   YZ=             -0.0126

 Normal termination of Gaussian 09 at Thu Aug 27 00:09:31 2020.
