 Gaussian 09, Revision D.01,
 Gaussian 09:  ES64L-G09RevD.01 24-Apr-2013

 --------------------
 #p B2PLYPD3/Def2QZVP
 --------------------

 ------------
 cyanomethane
 ------------
 Symbolic Z-matrix:
 Charge =  0 Multiplicity = 1

                         Standard orientation:
 ---------------------------------------------------------------------
 Center     Atomic      Atomic             Coordinates (Angstroms)
 Number     Number       Type             X           Y           Z
 ---------------------------------------------------------------------
      1          6           0       -1.173775   -0.013754    0.014414
      2          6           0        0.290528    0.003007   -0.030643
      3          7           0        1.436428    0.002156    0.009420
      4          1           0       -1.613528    1.033074    0.030609
      5          1           0       -1.506024   -0.509195    0.853784
      6          1           0       -1.635961   -0.474490   -0.852961
 ---------------------------------------------------------------------

 SCF Done:  E(RB2PLYPD3) =  -132.531682331     A.U. after   11 cycles
 E2(B2PLYPD3) =    -0.1798301611D+00 E(B2PLYPD3) =    -0.13271151249196D+03

 The electronic state is 1-A.
 Alpha  occ. eigenvalues --  -14.84138 -10.66932 -10.66228  -1.04530  -0.89149
 Alpha  occ. eigenvalues --   -0.60451  -0.54665  -0.52378  -0.44910  -0.39529
 Alpha  occ. eigenvalues --   -0.39241
 Alpha virt. eigenvalues --    0.03736   0.07616   0.08291   0.10220   0.11421
 Alpha virt. eigenvalues --    0.11677   0.15433   0.16722   0.16798   0.19988
 Alpha virt. eigenvalues --    0.20072   0.25299   0.32527   0.34130   0.35580

 Mulliken charges:
               1
     1  C   -0.070902
     2  C    0.000966
     3  N   -0.201137
     4  H    0.085598
     5  H    0.097500
     6  H    0.087974
 Sum of Mulliken charges =   0.00000

 Dipole moment (field-independent basis, Debye):
    X=             -4.1283    Y=             -0.0183    Z=             -0.0105  Tot=              4.1284
 Quadrupole moment (field-independent basis, Debye-Ang):
   XX=            -20.7115   YY=            -17.8186   ZZ=            -17.8079
   XY=             -0.0236   XZ=              0.0292   YZ=             -0.0583

 Normal termination of Gaussian 09 at Wed Aug 26 13:07:11 2020.
