 Gaussian 09, Revision D.01,
 Gaussian 09:  ES64L-G09RevD.01 24-Apr-2013

 --------------------
 #p B2PLYPD3/Def2QZVP
 --------------------

 ------------
 cyanomethane
 ------------
 Symbolic Z-matrix:
 Charge =  0 Multiplicity = 1

                         Standard orientation:
 ---------------------------------------------------------------------
 Center     Atomic      Atomic             Coordinates (Angstroms)
 Number     Number       Type             X           Y           Z
 ---------------------------------------------------------------------
      1          6           0        1.168495   -0.013708    0.000716
      2          6           0       -0.282282    0.011805   -0.011894
      3          7           0       -1.427813   -0.001877    0.006088
      4          1           0        1.535269   -0.657193   -0.760140
      5          1           0        1.544829   -0.330419    0.962855
      6          1           0        1.597318    1.012169   -0.178263
 ---------------------------------------------------------------------

 SCF Done:  E(RB2PLYPD3) =  -132.534868598     A.U. after   11 cycles
 E2(B2PLYPD3) =    -0.1797378517D+00 E(B2PLYPD3) =    -0.13271460644986D+03

 The electronic state is 1-A.
 Alpha  occ. eigenvalues --  -14.83978 -10.66994 -10.66004  -1.04512  -0.89277
 Alpha  occ. eigenvalues --   -0.60053  -0.54570  -0.52969  -0.44810  -0.39375
 Alpha  occ. eigenvalues --   -0.39157
 Alpha virt. eigenvalues --    0.03765   0.07704   0.08247   0.10180   0.11490
 Alpha virt. eigenvalues --    0.11735   0.15506   0.16439   0.16612   0.20020
 Alpha virt. eigenvalues --    0.20078   0.25501   0.32753   0.34320   0.35153

 Mulliken charges:
               1
     1  C   -0.079756
     2  C   -0.001759
     3  N   -0.201387
     4  H    0.097720
     5  H    0.095669
     6  H    0.089512
 Sum of Mulliken charges =   0.00000

 Dipole moment (field-independent basis, Debye):
    X=              4.1130    Y=             -0.0042    Z=             -0.0046  Tot=              4.1130
 Quadrupole moment (field-independent basis, Debye-Ang):
   XX=            -20.9052   YY=            -17.7709   ZZ=            -17.7182
   XY=              0.0263   XZ=              0.0444   YZ=              0.0383

 Normal termination of Gaussian 09 at Thu Aug 27 00:10:44 2020.
