 Gaussian 09, Revision D.01,
 Gaussian 09:  ES64L-G09RevD.01 24-Apr-2013

 --------------------
 #p B2PLYPD3/Def2QZVP
 --------------------

 ------------
 cyanomethane
 ------------
 Symbolic Z-matrix:
 Charge =  0 Multiplicity = 1

                         Standard orientation:
 ---------------------------------------------------------------------
 Center     Atomic      Atomic             Coordinates (Angstroms)
 Number     Number       Type             X           Y           Z
 ---------------------------------------------------------------------
      1          6           0        1.182601    0.002092    0.010271
      2          6           0       -0.277605   -0.008723   -0.015310
      3          7           0       -1.435735    0.004498    0.005862
      4          1           0        1.545872    1.008331   -0.280808
      5          1           0        1.548973   -0.741484   -0.728563
      6          1           0        1.525327   -0.258554    0.998572
 ---------------------------------------------------------------------

 SCF Done:  E(RB2PLYPD3) =  -132.534490127     A.U. after   12 cycles
 E2(B2PLYPD3) =    -0.1809088848D+00 E(B2PLYPD3) =    -0.13271539901168D+03

 The electronic state is 1-A.
 Alpha  occ. eigenvalues --  -14.84248 -10.67488 -10.66325  -1.03918  -0.89023
 Alpha  occ. eigenvalues --   -0.59238  -0.54275  -0.53493  -0.44736  -0.38980
 Alpha  occ. eigenvalues --   -0.38863
 Alpha virt. eigenvalues --    0.03697   0.07719   0.07908   0.10166   0.11366
 Alpha virt. eigenvalues --    0.11456   0.15307   0.15983   0.16335   0.20101
 Alpha virt. eigenvalues --    0.20117   0.25285   0.32527   0.34113   0.34733

 Mulliken charges:
               1
     1  C   -0.093112
     2  C   -0.001279
     3  N   -0.208181
     4  H    0.100394
     5  H    0.098695
     6  H    0.103484
 Sum of Mulliken charges =   0.00000

 Dipole moment (field-independent basis, Debye):
    X=              4.1235    Y=             -0.0087    Z=             -0.0064  Tot=              4.1235
 Quadrupole moment (field-independent basis, Debye-Ang):
   XX=            -21.1530   YY=            -17.7482   ZZ=            -17.7329
   XY=              0.0209   XZ=              0.0141   YZ=             -0.0220

 Normal termination of Gaussian 09 at Thu Aug 27 00:02:46 2020.
