 Gaussian 09, Revision D.01,
 Gaussian 09:  ES64L-G09RevD.01 24-Apr-2013

 -------------------------------------
 #p B2PLYPD3/Def2QZVP opt freq=NoRaman
 -------------------------------------

 ------------
 acrolein_opt
 ------------
 Symbolic Z-matrix:
 Charge =  0 Multiplicity = 1

 SCF Done:  E(RB2PLYPD3) =  -191.615836935     A.U. after   12 cycles
 E2(B2PLYPD3) =    -0.2478484368D+00 E(B2PLYPD3) =    -0.19186368537179D+03
 SCF Done:  E(RB2PLYPD3) =  -191.617345135     A.U. after   10 cycles
 E2(B2PLYPD3) =    -0.2471542883D+00 E(B2PLYPD3) =    -0.19186449942368D+03
 SCF Done:  E(RB2PLYPD3) =  -191.617521123     A.U. after    9 cycles
 E2(B2PLYPD3) =    -0.2470259347D+00 E(B2PLYPD3) =    -0.19186454705738D+03
 SCF Done:  E(RB2PLYPD3) =  -191.617513035     A.U. after    9 cycles
 E2(B2PLYPD3) =    -0.2470382714D+00 E(B2PLYPD3) =    -0.19186455130589D+03
 SCF Done:  E(RB2PLYPD3) =  -191.617492511     A.U. after   10 cycles
 E2(B2PLYPD3) =    -0.2470443280D+00 E(B2PLYPD3) =    -0.19186453683858D+03
 SCF Done:  E(RB2PLYPD3) =  -191.617504990     A.U. after    9 cycles
 E2(B2PLYPD3) =    -0.2470471328D+00 E(B2PLYPD3) =    -0.19186455212267D+03
 Optimization completed.
    -- Stationary point found.
 Normal termination of Gaussian 09 at Thu Aug 20 13:28:31 2020.

 ----------------------------------------------------------------------
 #P Geom=AllCheck Guess=TCheck SCRF=Check GenChk RB2PLYPD3(FC)/def2QZVP
  Freq
 ----------------------------------------------------------------------

 Structure from the checkpoint file:  "acrolein_opt.chk"
 ------------
 acrolein_opt
 ------------
 Charge =  0 Multiplicity = 1

                         Standard orientation:
 ---------------------------------------------------------------------
 Center     Atomic      Atomic             Coordinates (Angstroms)
 Number     Number       Type             X           Y           Z
 ---------------------------------------------------------------------
      1          6           0       -0.671462    0.348334    0.000074
      2          8           0       -1.787933   -0.120361   -0.000039
      3          6           0        0.560966   -0.450812    0.000018
      4          6           0        1.754112    0.142819   -0.000020
      5          1           0        0.447185   -1.525613    0.000017
      6          1           0        1.832945    1.221664   -0.000015
      7          1           0        2.675438   -0.418434   -0.000049
      8          1           0       -0.513794    1.443219   -0.000070
 ---------------------------------------------------------------------

 SCF Done:  E(RB2PLYPD3) =  -191.617504990     A.U. after    1 cycles
 E2(B2PLYPD3) =    -0.2470471282D+00 E(B2PLYPD3) =    -0.19186455211806D+03
 E2(B2PLYPD3) =    -0.2470471282D+00 E(B2PLYPD3) =    -0.19186455211806D+03

 The electronic state is 1-A.
 Alpha  occ. eigenvalues --  -19.72797 -10.71552 -10.65426 -10.64366  -1.19495
 Alpha  occ. eigenvalues --   -0.93043  -0.75462  -0.67037  -0.56537  -0.56471
 Alpha  occ. eigenvalues --   -0.50596  -0.46987  -0.46773  -0.34697  -0.33845
 Alpha virt. eigenvalues --   -0.01733   0.05761   0.07179   0.08212   0.09742
 Alpha virt. eigenvalues --    0.12579   0.14027   0.15359   0.17475   0.19823
 Alpha virt. eigenvalues --    0.19966   0.21583   0.25530   0.26423   0.28785

 Mulliken charges:
               1
     1  C    0.155286
     2  O   -0.348836
     3  C   -0.037672
     4  C   -0.131435
     5  H    0.105308
     6  H    0.084625
     7  H    0.102622
     8  H    0.070102
 Sum of Mulliken charges =   0.00000

 Dipole moment (field-independent basis, Debye):
    X=              3.4957    Y=              0.7523    Z=              0.0001  Tot=              3.5758
 Quadrupole moment (field-independent basis, Debye-Ang):
   XX=            -27.4260   YY=            -21.7392   ZZ=            -25.2073
   XY=             -0.9210   XZ=             -0.0003   YZ=              0.0000

  Exact polarizability:  60.366   4.237  38.048   0.000   0.000  26.201
 Approx polarizability:  68.596   8.994  42.398   0.000   0.000  31.979

                      1                      2                      3
                      A                      A                      A
 Frequencies --    166.5554               323.2497               574.1678
 Red. masses --      3.4577                 2.6871                 4.8698
 Frc consts  --      0.0565                 0.1654                 0.9459
 IR Inten    --      4.5077                10.4069                 4.0843

                      4                      5                      6
                      A                      A                      A
 Frequencies --    618.4970               929.4407              1002.6101
 Red. masses --      1.1777                 1.5756                 1.3181
 Frc consts  --      0.2654                 0.8019                 0.7807
 IR Inten    --     10.5079                20.3955                38.3699

                      7                      8                      9
                      A                      A                      A
 Frequencies --   1030.1628              1042.0643              1181.3249
 Red. masses --      1.7084                 1.1533                 2.0115
 Frc consts  --      1.0682                 0.7378                 1.6539
 IR Inten    --      3.6826                14.2817                39.0366

                     10                     11                     12
                      A                      A                      A
 Frequencies --   1307.8442              1396.6564              1465.3264
 Red. masses --      1.4975                 1.1979                 1.2342
 Frc consts  --      1.5091                 1.3767                 1.5613
 IR Inten    --      2.6851                 5.3524                10.3113

                     13                     14                     15
                      A                      A                      A
 Frequencies --   1674.2713              1751.3604              2916.7588
 Red. masses --      3.9709                 8.8532                 1.0835
 Frc consts  --      6.5584                15.9993                 5.4309
 IR Inten    --      3.0526               232.4554                85.3078

                     16                     17                     18
                      A                      A                      A
 Frequencies --   3158.9864              3202.8361              3254.8269
 Red. masses --      1.0593                 1.0938                 1.1156
 Frc consts  --      6.2283                 6.6107                 6.9631
 IR Inten    --      4.3262                 1.0195                 3.5666

 - Thermochemistry -
 -------------------
 Temperature   298.150 Kelvin.  Pressure   1.00000 Atm.
 Atom     1 has atomic number  6 and mass  12.00000

 Molecular mass:    56.02621 amu.
 Principal axes and moments of inertia in atomic units:
                           1         2         3
     Eigenvalues --    37.44995 385.54430 422.99425
           X            1.00000  -0.00251   0.00000
           Y            0.00251   1.00000  -0.00001
           Z            0.00000   0.00001   1.00000
 This molecule is an asymmetric top.
 Rotational symmetry number  1.
 Rotational temperatures (Kelvin)      2.31279     0.22465     0.20476
 Rotational constants (GHZ):          48.19075     4.68102     4.26659
 Zero-point vibrational energy     161477.6 (Joules/Mol)
                                   38.59406 (Kcal/Mol)
 Warning -- explicit consideration of   4 degrees of freedom as
           vibrations may cause significant error
 Vibrational temperatures:    239.64   465.08   826.10   889.88  1337.26
          (Kelvin)           1442.53  1482.17  1499.30  1699.66  1881.69
                             2009.47  2108.28  2408.90  2519.81  4196.56
                             4545.07  4608.16  4682.96

 Zero-point correction=                           0.061504 (Hartree/Particle)
 Thermal correction to Energy=                    0.065863
 Thermal correction to Enthalpy=                  0.066807
 Thermal correction to Gibbs Free Energy=         0.035214
 Sum of electronic and zero-point Energies=           -191.803049
 Sum of electronic and thermal Energies=              -191.798689
 Sum of electronic and thermal Enthalpies=            -191.797745
 Sum of electronic and thermal Free Energies=         -191.829338

                     E (Thermal)             CV                S
                      KCal/Mol        Cal/Mol-Kelvin    Cal/Mol-Kelvin
 Total                   41.330             13.693             66.493
 Electronic               0.000              0.000              0.000
 Translational            0.889              2.981             37.991
 Rotational               0.889              2.981             23.328
 Vibrational             39.552              7.731              5.174
 Vibration     1          0.624              1.884              2.474
 Vibration     2          0.708              1.629              1.294
 Vibration     3          0.930              1.087              0.496
 Vibration     4          0.978              0.993              0.419

 Optimization completed.
    -- Stationary point found.
 Normal termination of Gaussian 09 at Thu Aug 20 16:03:39 2020.
