 Gaussian 09, Revision D.01,
 Gaussian 09:  ES64L-G09RevD.01 24-Apr-2013

 -------------------------------------
 #p B2PLYPD3/Def2QZVP opt freq=NoRaman
 -------------------------------------

 ------------
 methanol_opt
 ------------
 Symbolic Z-matrix:
 Charge =  0 Multiplicity = 1

 SCF Done:  E(RB2PLYPD3) =  -115.552010795     A.U. after   10 cycles
 E2(B2PLYPD3) =    -0.1473819732D+00 E(B2PLYPD3) =    -0.11569939276836D+03
 SCF Done:  E(RB2PLYPD3) =  -115.552994290     A.U. after    9 cycles
 E2(B2PLYPD3) =    -0.1472796941D+00 E(B2PLYPD3) =    -0.11570027398398D+03
 SCF Done:  E(RB2PLYPD3) =  -115.553124164     A.U. after    7 cycles
 E2(B2PLYPD3) =    -0.1471974176D+00 E(B2PLYPD3) =    -0.11570032158152D+03
 SCF Done:  E(RB2PLYPD3) =  -115.553139796     A.U. after    6 cycles
 E2(B2PLYPD3) =    -0.1471827115D+00 E(B2PLYPD3) =    -0.11570032250761D+03
 Optimization completed.
    -- Stationary point found.
 Normal termination of Gaussian 09 at Thu Aug 20 12:41:26 2020.

 ----------------------------------------------------------------------
 #P Geom=AllCheck Guess=TCheck SCRF=Check GenChk RB2PLYPD3(FC)/def2QZVP
  Freq
 ----------------------------------------------------------------------

 Structure from the checkpoint file:  "methanol_opt.chk"
 ------------
 methanol_opt
 ------------
 Charge =  0 Multiplicity = 1

                         Standard orientation:
 ---------------------------------------------------------------------
 Center     Atomic      Atomic             Coordinates (Angstroms)
 Number     Number       Type             X           Y           Z
 ---------------------------------------------------------------------
      1          6           0       -0.665987   -0.020145    0.000000
      2          8           0        0.747619    0.121739    0.000000
      3          1           0       -1.023966   -0.542570    0.888371
      4          1           0       -1.023965   -0.542580   -0.888366
      5          1           0       -1.080076    0.982908   -0.000006
      6          1           0        1.142978   -0.750805    0.000000
 ---------------------------------------------------------------------

 SCF Done:  E(RB2PLYPD3) =  -115.553139796     A.U. after    1 cycles
 E2(B2PLYPD3) =    -0.1471827095D+00 E(B2PLYPD3) =    -0.11570032250561D+03
 E2(B2PLYPD3) =    -0.1471827095D+00 E(B2PLYPD3) =    -0.11570032250561D+03

 The electronic state is 1-A.
 Alpha  occ. eigenvalues --  -19.72484 -10.65558  -1.16125  -0.78744  -0.58728
 Alpha  occ. eigenvalues --   -0.51786  -0.49881  -0.41089  -0.35375
 Alpha virt. eigenvalues --    0.04973   0.08259   0.12383   0.12447   0.14855
 Alpha virt. eigenvalues --    0.17267   0.18083   0.29138   0.33348   0.33493
 Alpha virt. eigenvalues --    0.35188   0.38930   0.39891   0.40935   0.43903

 Mulliken charges:
               1
     1  C    0.070584
     2  O   -0.459563
     3  H    0.047685
     4  H    0.047685
     5  H    0.070932
     6  H    0.222678
 Sum of Mulliken charges =   0.00000

 Dipole moment (field-independent basis, Debye):
    X=             -0.8780    Y=             -1.5012    Z=              0.0000  Tot=              1.7391
 Quadrupole moment (field-independent basis, Debye-Ang):
   XX=            -13.0116   YY=            -12.2208   ZZ=            -13.7807
   XY=             -2.2619   XZ=              0.0000   YZ=              0.0000

  Exact polarizability:  21.987  -0.392  19.565   0.000   0.000  18.652
 Approx polarizability:  21.518  -0.506  21.013   0.000   0.000  19.159

                      1                      2                      3
                      A                      A                      A
 Frequencies --    290.2610              1051.4320              1086.6760
 Red. masses --      1.0709                 3.3388                 1.3252
 Frc consts  --      0.0532                 2.1747                 0.9220
 IR Inten    --    108.7604               120.6282                 1.0029

                      4                      5                      6
                      A                      A                      A
 Frequencies --   1183.4569              1377.6586              1491.7546
 Red. masses --      1.2649                 1.2893                 1.1368
 Frc consts  --      1.0438                 1.4418                 1.4906
 IR Inten    --      0.5750                23.4144                 3.6856

                      7                      8                      9
                      A                      A                      A
 Frequencies --   1514.7390              1525.9723              3026.7113
 Red. masses --      1.0480                 1.0416                 1.0346
 Frc consts  --      1.4167                 1.4291                 5.5842
 IR Inten    --      2.6694                 4.8141                59.2003

                     10                     11                     12
                      A                      A                      A
 Frequencies --   3081.2307              3146.9153              3865.3126
 Red. masses --      1.1057                 1.0991                 1.0667
 Frc consts  --      6.1850                 6.4128                 9.3899
 IR Inten    --     52.5372                24.2790                33.2913

 - Thermochemistry -
 -------------------
 Temperature   298.150 Kelvin.  Pressure   1.00000 Atm.
 Atom     1 has atomic number  6 and mass  12.00000

 Molecular mass:    32.02621 amu.
 Principal axes and moments of inertia in atomic units:
                           1         2         3
     Eigenvalues --    13.96740  72.75195  75.35802
           X            0.99896  -0.04560   0.00000
           Y            0.04560   0.99896   0.00000
           Z            0.00000   0.00000   1.00000
 This molecule is an asymmetric top.
 Rotational symmetry number  1.
 Rotational temperatures (Kelvin)      6.20114     1.19054     1.14936
 Rotational constants (GHZ):         129.21093    24.80677    23.94889
 Zero-point vibrational energy     135430.0 (Joules/Mol)
                                   32.36854 (Kcal/Mol)
 Warning -- explicit consideration of   1 degrees of freedom as
           vibrations may cause significant error
 Vibrational temperatures:    417.62  1512.77  1563.48  1702.73  1982.14
          (Kelvin)           2146.30  2179.37  2195.53  4354.76  4433.20
                             4527.70  5561.32

 Zero-point correction=                           0.051583 (Hartree/Particle)
 Thermal correction to Energy=                    0.054944
 Thermal correction to Enthalpy=                  0.055888
 Thermal correction to Gibbs Free Energy=         0.028800
 Sum of electronic and zero-point Energies=           -115.648740
 Sum of electronic and thermal Energies=              -115.645378
 Sum of electronic and thermal Enthalpies=            -115.644434
 Sum of electronic and thermal Free Energies=         -115.671523

                     E (Thermal)             CV                S
                      KCal/Mol        Cal/Mol-Kelvin    Cal/Mol-Kelvin
 Total                   34.478              8.816             57.013
 Electronic               0.000              0.000              0.000
 Translational            0.889              2.981             36.324
 Rotational               0.889              2.981             18.977
 Vibrational             32.701              2.855              1.712
 Vibration     1          0.686              1.692              1.472

 Optimization completed.
    -- Stationary point found.
 Normal termination of Gaussian 09 at Thu Aug 20 13:04:42 2020.
