 Gaussian 09, Revision D.01,
 Gaussian 09:  ES64L-G09RevD.01 24-Apr-2013

 ------------------------------------
 #p B2PLYPD3/6-31G** opt freq=NoRaman
 ------------------------------------

 ----------------
 cyanomethane_opt
 ----------------
 Symbolic Z-matrix:
 Charge =  0 Multiplicity = 1

 SCF Done:  E(RB2PLYPD3) =  -132.479535687     A.U. after   12 cycles
 E2(B2PLYPD3) =    -0.1449842216D+00 E(B2PLYPD3) =    -0.13262451990896D+03
 Optimization completed.
    -- Stationary point found.
 Normal termination of Gaussian 09 at Wed Aug 19 17:57:58 2020.

 ----------------------------------------------------------------------
 #P Geom=AllCheck Guess=TCheck SCRF=Check GenChk RB2PLYPD3(FC)/6-31G(d,
 p) Freq
 ----------------------------------------------------------------------

 Structure from the checkpoint file:  "cyanomethane_opt.chk"
 ----------------
 cyanomethane_opt
 ----------------
 Charge =  0 Multiplicity = 1

                         Standard orientation:
 ---------------------------------------------------------------------
 Center     Atomic      Atomic             Coordinates (Angstroms)
 Number     Number       Type             X           Y           Z
 ---------------------------------------------------------------------
      1          6           0       -1.183540   -0.000111   -0.000070
      2          6           0        0.277550    0.000629   -0.000300
      3          7           0        1.444570   -0.000242    0.000140
      4          1           0       -1.558160   -0.208341    1.002140
      5          1           0       -1.558130   -0.764521   -0.680370
      6          1           0       -1.559769    0.971449   -0.320520
 ---------------------------------------------------------------------

 SCF Done:  E(RB2PLYPD3) =  -132.479535687     A.U. after    1 cycles
 E2(B2PLYPD3) =    -0.1449842211D+00 E(B2PLYPD3) =    -0.13262451990846D+03
 E2(B2PLYPD3) =    -0.1449842211D+00 E(B2PLYPD3) =    -0.13262451990846D+03

 The electronic state is 1-A.
 Alpha  occ. eigenvalues --  -14.85523 -10.67737 -10.67302  -1.02994  -0.88661
 Alpha  occ. eigenvalues --   -0.59215  -0.53287  -0.53270  -0.43828  -0.37888
 Alpha  occ. eigenvalues --   -0.37886
 Alpha virt. eigenvalues --    0.10357   0.10361   0.14083   0.22547   0.22552
 Alpha virt. eigenvalues --    0.25776   0.34487   0.61039   0.61051   0.66551
 Alpha virt. eigenvalues --    0.70459   0.70480   0.76245   0.87895   0.90476

 Mulliken charges:
               1
     1  C   -0.376586
     2  C    0.316201
     3  N   -0.463633
     4  H    0.174675
     5  H    0.174720
     6  H    0.174623
 Sum of Mulliken charges =   0.00000

 Dipole moment (field-independent basis, Debye):
    X=             -3.9561    Y=              0.0000    Z=              0.0001  Tot=              3.9561
 Quadrupole moment (field-independent basis, Debye-Ang):
   XX=            -20.5371   YY=            -17.3899   ZZ=            -17.3927
   XY=              0.0008   XZ=             -0.0012   YZ=              0.0004

  Exact polarizability:  33.630  -0.009  17.492   0.000  -0.001  17.488
 Approx polarizability:  43.355  -0.019  19.281   0.005  -0.001  19.277

                      1                      2                      3
                      A                      A                      A
 Frequencies --    374.5022               374.8451               938.8905
 Red. masses --      3.9146                 3.9191                 4.5290
 Frc consts  --      0.3235                 0.3244                 2.3522
 IR Inten    --      0.5712                 0.5705                 1.8988

                      4                      5                      6
                      A                      A                      A
 Frequencies --   1077.6448              1078.0803              1443.2872
 Red. masses --      1.4240                 1.4235                 1.2369
 Frc consts  --      0.9744                 0.9748                 1.5180
 IR Inten    --      2.3769                 2.3596                 1.7142

                      7                      8                      9
                      A                      A                      A
 Frequencies --   1510.3449              1510.7016              2318.9772
 Red. masses --      1.0398                 1.0399                12.5029
 Frc consts  --      1.3975                 1.3983                39.6144
 IR Inten    --      9.5359                 9.5439                 1.9971

                     10                     11                     12
                      A                      A                      A
 Frequencies --   3104.1433              3188.9528              3191.0711
 Red. masses --      1.0341                 1.1032                 1.1032
 Frc consts  --      5.8708                 6.6098                 6.6188
 IR Inten    --      3.1485                 1.6477                 1.6285

 - Thermochemistry -
 -------------------
 Temperature   298.150 Kelvin.  Pressure   1.00000 Atm.
 Atom     1 has atomic number  6 and mass  12.00000

 Molecular mass:    41.02655 amu.
 Principal axes and moments of inertia in atomic units:
                           1         2         3
     Eigenvalues --    11.30643 197.68373 197.68983
           X            1.00000   0.00001  -0.00003
           Y           -0.00001   1.00000   0.00064
           Z            0.00003  -0.00064   1.00000
 This molecule is an asymmetric top.
 Rotational symmetry number  1.
 Rotational temperatures (Kelvin)      7.66058     0.43814     0.43813
 Rotational constants (GHZ):         159.62082     9.12944     9.12916
 Zero-point vibrational energy     120293.1 (Joules/Mol)
                                   28.75075 (Kcal/Mol)
 Warning -- explicit consideration of   2 degrees of freedom as
           vibrations may cause significant error
 Vibrational temperatures:    538.82   539.32  1350.85  1550.49  1551.12
          (Kelvin)           2076.57  2173.05  2173.56  3336.49  4466.16
                             4588.19  4591.23

 Zero-point correction=                           0.045817 (Hartree/Particle)
 Thermal correction to Energy=                    0.049436
 Thermal correction to Enthalpy=                  0.050380
 Thermal correction to Gibbs Free Energy=         0.021779
 Sum of electronic and zero-point Energies=           -132.578703
 Sum of electronic and thermal Energies=              -132.575084
 Sum of electronic and thermal Enthalpies=            -132.574140
 Sum of electronic and thermal Free Energies=         -132.602741

                     E (Thermal)             CV                S
                      KCal/Mol        Cal/Mol-Kelvin    Cal/Mol-Kelvin
 Total                   31.022             10.297             60.196
 Electronic               0.000              0.000              0.000
 Translational            0.889              2.981             37.062
 Rotational               0.889              2.981             20.718
 Vibrational             29.244              4.335              2.415
 Vibration     1          0.746              1.524              1.061
 Vibration     2          0.746              1.524              1.060

 Optimization completed.
    -- Stationary point found.
 Normal termination of Gaussian 09 at Wed Aug 19 17:58:11 2020.
